A Gromacs structure file written by ASE
 3672
    1DMSO     C    1   1.782   1.897   1.940
    1DMSO     S    2   1.914   1.877   1.817
    1DMSO     C    3   2.050   1.912   1.930
    1DMSO     O    4   1.902   2.005   1.712
    1DMSO     H    5   1.686   1.884   1.891
    1DMSO     H    6   1.793   1.821   2.018
    1DMSO     H    7   1.788   1.997   1.985
    1DMSO     H    8   2.037   2.011   1.976
    1DMSO     H    9   2.054   1.836   2.008
    1DMSO     H   10   2.144   1.910   1.874
    2DMSO     C   11   2.472   0.484   0.116
    2DMSO     S   12   2.400   0.589   0.246
    2DMSO     C   13   2.437   0.477   0.382
    2DMSO     O   14   2.236   0.588   0.224
    2DMSO     H   15   2.456   0.532   0.020
    2DMSO     H   16   2.579   0.472   0.133
    2DMSO     H   17   2.424   0.385   0.117
    2DMSO     H   18   2.392   0.378   0.364
    2DMSO     H   19   2.545   0.465   0.393
    2DMSO     H   20   2.397   0.519   0.475
    3DMSO     C   21   1.031   3.309   0.028
    3DMSO     S   22   1.080   3.467   0.103
    3DMSO     C   23   1.171   3.394   0.241
    3DMSO     O   24   0.942   3.535   0.166
    3DMSO     H   25   0.968   3.329  -0.058
    3DMSO     H   26   1.120   3.255  -0.004
    3DMSO     H   27   0.976   3.248   0.101
    3DMSO     H   28   1.106   3.327   0.299
    3DMSO     H   29   1.257   3.338   0.203
    3DMSO     H   30   1.208   3.474   0.305
    4DMSO     C   31   2.370   3.450   2.676
    4DMSO     S   32   2.392   3.332   2.812
    4DMSO     C   33   2.456   3.453   2.930
    4DMSO     O   34   2.518   3.232   2.770
    4DMSO     H   35   2.335   3.396   2.588
    4DMSO     H   36   2.296   3.525   2.704
    4DMSO     H   37   2.466   3.499   2.654
    4DMSO     H   38   2.546   3.502   2.890
    4DMSO     H   39   2.380   3.528   2.952
    4DMSO     H   40   2.482   3.401   3.023
    5DMSO     C   41   2.270   3.565   1.241
    5DMSO     S   42   2.323   3.736   1.272
    5DMSO     C   43   2.188   3.777   1.384
    5DMSO     O   44   2.298   3.820   1.131
    5DMSO     H   45   2.337   3.520   1.169
    5DMSO     H   46   2.273   3.508   1.335
    5DMSO     H   47   2.167   3.565   1.202
    5DMSO     H   48   2.091   3.762   1.335
    5DMSO     H   49   2.194   3.715   1.473
    5DMSO     H   50   2.197   3.882   1.413
    6DMSO     C   51   0.304   1.591   3.052
    6DMSO     S   52   0.410   1.678   3.171
    6DMSO     C   53   0.279   1.782   3.239
    6DMSO     O   54   0.511   1.776   3.083
    6DMSO     H   55   0.365   1.523   2.994
    6DMSO     H   56   0.228   1.534   3.106
    6DMSO     H   57   0.255   1.663   2.986
    6DMSO     H   58   0.232   1.841   3.159
    6DMSO     H   59   0.204   1.720   3.288
    6DMSO     H   60   0.323   1.850   3.313
    7DMSO     C   61   1.564   2.570   2.823
    7DMSO     S   62   1.468   2.722   2.852
    7DMSO     C   63   1.311   2.656   2.793
    7DMSO     O   64   1.520   2.834   2.741
    7DMSO     H   65   1.668   2.589   2.849
    7DMSO     H   66   1.525   2.490   2.886
    7DMSO     H   67   1.556   2.541   2.717
    7DMSO     H   68   1.321   2.620   2.689
    7DMSO     H   69   1.279   2.573   2.857
    7DMSO     H   70   1.236   2.735   2.797
    8DMSO     C   71   0.013   3.264   2.968
    8DMSO     S   72   0.140   3.185   3.072
    8DMSO     C   73   0.151   3.318   3.193
    8DMSO     O   74   0.281   3.184   2.985
    8DMSO     H   75  -0.007   3.200   2.883
    8DMSO     H   76  -0.079   3.276   3.026
    8DMSO     H   77   0.049   3.362   2.934
    8DMSO     H   78   0.177   3.413   3.143
    8DMSO     H   79   0.056   3.330   3.244
    8DMSO     H   80   0.228   3.293   3.266
    9DMSO     C   81   1.954   2.491   3.645
    9DMSO     S   82   1.943   2.492   3.826
    9DMSO     C   83   2.096   2.402   3.855
    9DMSO     O   84   1.817   2.391   3.867
    9DMSO     H   85   1.865   2.539   3.604
    9DMSO     H   86   2.043   2.548   3.614
    9DMSO     H   87   1.961   2.388   3.609
    9DMSO     H   88   2.093   2.304   3.803
    9DMSO     H   89   2.181   2.460   3.818
    9DMSO     H   90   2.108   2.385   3.962
   10DMSO     C   91   3.737   1.042   0.396
   10DMSO     S   92   3.617   1.094   0.270
   10DMSO     C   93   3.710   1.032   0.129
   10DMSO     O   94   3.622   1.260   0.265
   10DMSO     H   95   3.702   1.074   0.494
   10DMSO     H   96   3.745   0.933   0.395
   10DMSO     H   97   3.835   1.086   0.374
   10DMSO     H   98   3.810   1.077   0.126
   10DMSO     H   99   3.719   0.924   0.135
   10DMSO     H  100   3.656   1.058   0.037
   11DMSO     C  101   2.117   1.551   1.409
   11DMSO     S  102   2.017   1.496   1.267
   11DMSO     C  103   2.154   1.486   1.151
   11DMSO     O  104   1.923   1.625   1.222
   11DMSO     H  105   2.051   1.568   1.493
   11DMSO     H  106   2.189   1.473   1.435
   11DMSO     H  107   2.170   1.643   1.383
   11DMSO     H  108   2.206   1.583   1.143
   11DMSO     H  109   2.225   1.410   1.183
   11DMSO     H  110   2.116   1.458   1.052
   12DMSO     C  111   2.313   3.627   0.284
   12DMSO     S  112   2.445   3.699   0.182
   12DMSO     C  113   2.415   3.596   0.037
   12DMSO     O  114   2.589   3.651   0.248
   12DMSO     H  115   2.316   3.674   0.382
   12DMSO     H  116   2.216   3.647   0.237
   12DMSO     H  117   2.328   3.519   0.293
   12DMSO     H  118   2.422   3.489   0.064
   12DMSO     H  119   2.315   3.616  -0.003
   12DMSO     H  120   2.489   3.619  -0.039
   13DMSO     C  121   1.001   1.553   0.319
   13DMSO     S  122   1.012   1.606   0.146
   13DMSO     C  123   0.845   1.675   0.137
   13DMSO     O  124   1.013   1.467   0.054
   13DMSO     H  125   1.093   1.503   0.346
   13DMSO     H  126   0.989   1.641   0.383
   13DMSO     H  127   0.916   1.486   0.333
   13DMSO     H  128   0.771   1.598   0.164
   13DMSO     H  129   0.837   1.759   0.205
   13DMSO     H  130   0.827   1.710   0.035
   14DMSO     C  131   0.704   1.150   1.506
   14DMSO     S  132   0.640   1.295   1.594
   14DMSO     C  133   0.554   1.202   1.723
   14DMSO     O  134   0.524   1.364   1.497
   14DMSO     H  135   0.758   1.184   1.418
   14DMSO     H  136   0.772   1.095   1.571
   14DMSO     H  137   0.621   1.085   1.476
   14DMSO     H  138   0.482   1.133   1.678
   14DMSO     H  139   0.626   1.146   1.782
   14DMSO     H  140   0.502   1.273   1.788
   15DMSO     C  141   3.691   2.525   2.141
   15DMSO     S  142   3.726   2.637   2.279
   15DMSO     C  143   3.749   2.508   2.403
   15DMSO     O  144   3.584   2.716   2.315
   15DMSO     H  145   3.669   2.584   2.053
   15DMSO     H  146   3.779   2.463   2.122
   15DMSO     H  147   3.606   2.461   2.166
   15DMSO     H  148   3.659   2.445   2.409
   15DMSO     H  149   3.835   2.446   2.377
   15DMSO     H  150   3.768   2.555   2.500
   16DMSO     C  151   0.335   2.486   3.620
   16DMSO     S  152   0.167   2.470   3.687
   16DMSO     C  153   0.088   2.576   3.565
   16DMSO     O  154   0.165   2.550   3.832
   16DMSO     H  155   0.404   2.432   3.683
   16DMSO     H  156   0.338   2.444   3.519
   16DMSO     H  157   0.363   2.592   3.616
   16DMSO     H  158   0.134   2.676   3.565
   16DMSO     H  159   0.097   2.532   3.466
   16DMSO     H  160  -0.019   2.584   3.590
   17DMSO     C  161   1.306   3.045   3.374
   17DMSO     S  162   1.431   3.095   3.496
   17DMSO     C  163   1.346   3.025   3.639
   17DMSO     O  164   1.424   3.260   3.509
   17DMSO     H  165   1.335   3.082   3.277
   17DMSO     H  166   1.300   2.936   3.371
   17DMSO     H  167   1.208   3.087   3.403
   17DMSO     H  168   1.245   3.068   3.649
   17DMSO     H  169   1.339   2.917   3.629
   17DMSO     H  170   1.404   3.048   3.729
   18DMSO     C  171   1.429   2.015   1.574
   18DMSO     S  172   1.299   2.018   1.701
   18DMSO     C  173   1.410   2.011   1.842
   18DMSO     O  174   1.220   1.872   1.692
   18DMSO     H  175   1.382   2.014   1.476
   18DMSO     H  176   1.491   2.105   1.584
   18DMSO     H  177   1.491   1.926   1.587
   18DMSO     H  178   1.474   1.922   1.836
   18DMSO     H  179   1.473   2.101   1.845
   18DMSO     H  180   1.351   2.007   1.934
   19DMSO     C  181   1.405   2.714   1.051
   19DMSO     S  182   1.487   2.790   1.194
   19DMSO     C  183   1.338   2.858   1.268
   19DMSO     O  184   1.578   2.916   1.137
   19DMSO     H  185   1.479   2.669   0.987
   19DMSO     H  186   1.335   2.637   1.086
   19DMSO     H  187   1.350   2.791   0.996
   19DMSO     H  188   1.287   2.925   1.197
   19DMSO     H  189   1.270   2.778   1.297
   19DMSO     H  190   1.365   2.915   1.358
   20DMSO     C  191   0.373   2.472   2.751
   20DMSO     S  192   0.280   2.606   2.830
   20DMSO     C  193   0.141   2.505   2.883
   20DMSO     O  194   0.226   2.706   2.709
   20DMSO     H  195   0.463   2.513   2.706
   20DMSO     H  196   0.401   2.397   2.826
   20DMSO     H  197   0.310   2.424   2.674
   20DMSO     H  198   0.095   2.455   2.797
   20DMSO     H  199   0.175   2.430   2.955
   20DMSO     H  200   0.067   2.569   2.932
   21DMSO     C  201   2.470   1.329   0.866
   21DMSO     S  202   2.345   1.261   0.753
   21DMSO     C  203   2.280   1.421   0.700
   21DMSO     O  204   2.229   1.189   0.846
   21DMSO     H  205   2.521   1.246   0.915
   21DMSO     H  206   2.542   1.387   0.809
   21DMSO     H  207   2.421   1.392   0.941
   21DMSO     H  208   2.245   1.479   0.787
   21DMSO     H  209   2.357   1.477   0.648
   21DMSO     H  210   2.196   1.405   0.631
   22DMSO     C  211   3.322   3.201   1.798
   22DMSO     S  212   3.277   3.275   1.638
   22DMSO     C  213   3.364   3.155   1.536
   22DMSO     O  214   3.359   3.419   1.628
   22DMSO     H  215   3.281   3.262   1.878
   22DMSO     H  216   3.279   3.100   1.804
   22DMSO     H  217   3.431   3.195   1.807
   22DMSO     H  218   3.471   3.152   1.564
   22DMSO     H  219   3.321   3.056   1.550
   22DMSO     H  220   3.355   3.184   1.431
   23DMSO     C  221   1.341   1.535   1.888
   23DMSO     S  222   1.204   1.493   1.999
   23DMSO     C  223   1.306   1.462   2.144
   23DMSO     O  224   1.144   1.346   1.948
   23DMSO     H  225   1.302   1.554   1.789
   23DMSO     H  226   1.392   1.625   1.925
   23DMSO     H  227   1.413   1.452   1.885
   23DMSO     H  228   1.381   1.384   2.123
   23DMSO     H  229   1.357   1.553   2.174
   23DMSO     H  230   1.242   1.429   2.227
   24DMSO     C  231   0.161   1.274   1.743
   24DMSO     S  232   0.102   1.445   1.740
   24DMSO     C  233   0.139   1.474   1.566
   24DMSO     O  234   0.210   1.535   1.829
   24DMSO     H  235   0.153   1.236   1.845
   24DMSO     H  236   0.099   1.213   1.677
   24DMSO     H  237   0.266   1.270   1.710
   24DMSO     H  238   0.245   1.455   1.545
   24DMSO     H  239   0.078   1.408   1.504
   24DMSO     H  240   0.114   1.578   1.541
   25DMSO     C  241   1.052   2.921   2.665
   25DMSO     S  242   1.046   2.879   2.488
   25DMSO     C  243   1.218   2.921   2.453
   25DMSO     O  244   0.951   2.994   2.415
   25DMSO     H  245   0.954   2.906   2.708
   25DMSO     H  246   1.123   2.854   2.715
   25DMSO     H  247   1.084   3.025   2.677
   25DMSO     H  248   1.238   3.025   2.481
   25DMSO     H  249   1.284   2.855   2.509
   25DMSO     H  250   1.236   2.907   2.346
   26DMSO     C  251   3.754   2.263   1.286
   26DMSO     S  252   3.731   2.224   1.462
   26DMSO     C  253   3.884   2.130   1.481
   26DMSO     O  254   3.605   2.116   1.472
   26DMSO     H  255   3.668   2.318   1.251
   26DMSO     H  256   3.844   2.324   1.274
   26DMSO     H  257   3.766   2.170   1.229
   26DMSO     H  258   3.887   2.047   1.410
   26DMSO     H  259   3.970   2.195   1.463
   26DMSO     H  260   3.890   2.092   1.583
   27DMSO     C  261   0.031   3.136   0.509
   27DMSO     S  262   0.093   3.144   0.679
   27DMSO     C  263   0.170   3.307   0.663
   27DMSO     O  264   0.216   3.033   0.692
   27DMSO     H  265  -0.017   3.040   0.494
   27DMSO     H  266  -0.042   3.215   0.492
   27DMSO     H  267   0.115   3.147   0.438
   27DMSO     H  268   0.243   3.307   0.581
   27DMSO     H  269   0.093   3.382   0.643
   27DMSO     H  270   0.220   3.332   0.757
   28DMSO     C  271   2.688   0.570   1.671
   28DMSO     S  272   2.812   0.617   1.796
   28DMSO     C  273   2.921   0.704   1.682
   28DMSO     O  274   2.889   0.478   1.842
   28DMSO     H  275   2.611   0.510   1.719
   28DMSO     H  276   2.642   0.660   1.630
   28DMSO     H  277   2.736   0.513   1.591
   28DMSO     H  278   2.952   0.637   1.600
   28DMSO     H  279   2.869   0.791   1.640
   28DMSO     H  280   3.009   0.739   1.736
   29DMSO     C  281   1.146   3.336   1.759
   29DMSO     S  282   1.117   3.333   1.580
   29DMSO     C  283   0.948   3.396   1.587
   29DMSO     O  284   1.109   3.174   1.535
   29DMSO     H  285   1.245   3.297   1.779
   29DMSO     H  286   1.140   3.440   1.795
   29DMSO     H  287   1.070   3.276   1.810
   29DMSO     H  288   0.886   3.331   1.650
   29DMSO     H  289   0.947   3.497   1.627
   29DMSO     H  290   0.906   3.398   1.486
   30DMSO     C  291   1.266   0.997   0.908
   30DMSO     S  292   1.243   0.935   1.077
   30DMSO     C  293   1.273   1.093   1.159
   30DMSO     O  294   1.372   0.836   1.111
   30DMSO     H  295   1.256   0.914   0.839
   30DMSO     H  296   1.189   1.071   0.886
   30DMSO     H  297   1.366   1.042   0.898
   30DMSO     H  298   1.372   1.132   1.131
   30DMSO     H  299   1.197   1.165   1.130
   30DMSO     H  300   1.269   1.078   1.267
   31DMSO     C  301   0.668   1.050   1.071
   31DMSO     S  302   0.629   0.889   0.998
   31DMSO     C  303   0.789   0.865   0.920
   31DMSO     O  304   0.518   0.917   0.878
   31DMSO     H  305   0.580   1.088   1.123
   31DMSO     H  306   0.749   1.039   1.144
   31DMSO     H  307   0.698   1.121   0.993
   31DMSO     H  308   0.811   0.949   0.852
   31DMSO     H  309   0.867   0.858   0.996
   31DMSO     H  310   0.787   0.772   0.863
   32DMSO     C  311   2.880   3.567   3.136
   32DMSO     S  312   2.924   3.723   3.218
   32DMSO     C  313   2.823   3.696   3.364
   32DMSO     O  314   2.854   3.845   3.130
   32DMSO     H  315   2.929   3.563   3.039
   32DMSO     H  316   2.915   3.483   3.196
   32DMSO     H  317   2.771   3.561   3.123
   32DMSO     H  318   2.718   3.680   3.336
   32DMSO     H  319   2.859   3.608   3.419
   32DMSO     H  320   2.830   3.783   3.429
   33DMSO     C  321   1.812   0.922   0.407
   33DMSO     S  322   1.929   1.033   0.323
   33DMSO     C  323   2.077   0.963   0.398
   33DMSO     O  324   1.907   1.184   0.388
   33DMSO     H  325   1.711   0.950   0.379
   33DMSO     H  326   1.831   0.819   0.375
   33DMSO     H  327   1.825   0.930   0.515
   33DMSO     H  328   2.071   0.968   0.507
   33DMSO     H  329   2.089   0.860   0.367
   33DMSO     H  330   2.164   1.020   0.364
   34DMSO     C  331   1.747   3.608   1.752
   34DMSO     S  332   1.788   3.432   1.740
   34DMSO     C  333   1.625   3.379   1.683
   34DMSO     O  334   1.807   3.376   1.895
   34DMSO     H  335   1.833   3.662   1.791
   34DMSO     H  336   1.722   3.647   1.653
   34DMSO     H  337   1.661   3.622   1.819
   34DMSO     H  338   1.548   3.409   1.755
   34DMSO     H  339   1.604   3.423   1.586
   34DMSO     H  340   1.625   3.270   1.672
   35DMSO     C  341   2.476   1.758   3.921
   35DMSO     S  342   2.324   1.766   3.822
   35DMSO     C  343   2.399   1.845   3.679
   35DMSO     O  344   2.225   1.878   3.895
   35DMSO     H  345   2.453   1.716   4.018
   35DMSO     H  346   2.549   1.694   3.870
   35DMSO     H  347   2.518   1.859   3.933
   35DMSO     H  348   2.446   1.940   3.708
   35DMSO     H  349   2.474   1.780   3.635
   35DMSO     H  350   2.321   1.865   3.604
   36DMSO     C  351   3.089   1.054   3.234
   36DMSO     S  352   3.103   1.222   3.301
   36DMSO     C  353   3.153   1.172   3.466
   36DMSO     O  354   2.949   1.283   3.312
   36DMSO     H  355   3.054   1.060   3.131
   36DMSO     H  356   3.187   1.006   3.235
   36DMSO     H  357   3.018   0.996   3.294
   36DMSO     H  358   3.078   1.105   3.510
   36DMSO     H  359   3.249   1.121   3.462
   36DMSO     H  360   3.164   1.261   3.529
   37DMSO     C  361   0.106   3.924   0.651
   37DMSO     S  362   0.269   3.847   0.673
   37DMSO     C  363   0.248   3.722   0.545
   37DMSO     O  364   0.266   3.769   0.820
   37DMSO     H  365   0.094   4.003   0.724
   37DMSO     H  366   0.099   3.967   0.550
   37DMSO     H  367   0.027   3.848   0.664
   37DMSO     H  368   0.159   3.661   0.565
   37DMSO     H  369   0.238   3.770   0.447
   37DMSO     H  370   0.337   3.658   0.543
   38DMSO     C  371   1.946   2.859   2.088
   38DMSO     S  372   1.949   3.013   2.184
   38DMSO     C  373   1.904   2.937   2.341
   38DMSO     O  374   1.820   3.104   2.134
   38DMSO     H  375   1.967   2.882   1.984
   38DMSO     H  376   2.023   2.791   2.126
   38DMSO     H  377   1.847   2.812   2.097
   38DMSO     H  378   1.808   2.884   2.332
   38DMSO     H  379   1.982   2.867   2.372
   38DMSO     H  380   1.895   3.016   2.417
   39DMSO     C  381   3.168   1.852   1.224
   39DMSO     S  382   3.048   1.937   1.331
   39DMSO     C  383   3.151   1.934   1.479
   39DMSO     O  384   2.923   1.831   1.355
   39DMSO     H  385   3.124   1.839   1.126
   39DMSO     H  386   3.258   1.914   1.214
   39DMSO     H  387   3.195   1.755   1.267
   39DMSO     H  388   3.179   1.830   1.504
   39DMSO     H  389   3.241   1.993   1.463
   39DMSO     H  390   3.094   1.977   1.562
   40DMSO     C  391   2.715   1.220   2.085
   40DMSO     S  392   2.686   1.066   2.176
   40DMSO     C  393   2.538   1.122   2.261
   40DMSO     O  394   2.807   1.054   2.289
   40DMSO     H  395   2.806   1.210   2.027
   40DMSO     H  396   2.631   1.238   2.016
   40DMSO     H  397   2.723   1.304   2.155
   40DMSO     H  398   2.559   1.213   2.319
   40DMSO     H  399   2.459   1.143   2.189
   40DMSO     H  400   2.503   1.043   2.329
   41DMSO     C  401   0.422   2.857   0.725
   41DMSO     S  402   0.543   2.836   0.591
   41DMSO     C  403   0.422   2.834   0.457
   41DMSO     O  404   0.605   2.683   0.605
   41DMSO     H  405   0.474   2.856   0.820
   41DMSO     H  406   0.370   2.952   0.713
   41DMSO     H  407   0.349   2.775   0.722
   41DMSO     H  408   0.349   2.753   0.473
   41DMSO     H  409   0.371   2.930   0.452
   41DMSO     H  410   0.475   2.817   0.363
   42DMSO     C  411   2.643   0.526   3.629
   42DMSO     S  412   2.525   0.645   3.559
   42DMSO     C  413   2.469   0.539   3.425
   42DMSO     O  414   2.614   0.768   3.492
   42DMSO     H  415   2.695   0.573   3.712
   42DMSO     H  416   2.589   0.438   3.664
   42DMSO     H  417   2.716   0.497   3.552
   42DMSO     H  418   2.554   0.508   3.362
   42DMSO     H  419   2.420   0.451   3.465
   42DMSO     H  420   2.397   0.595   3.364
   43DMSO     C  421   0.321   0.310   0.574
   43DMSO     S  422   0.177   0.411   0.531
   43DMSO     C  423   0.240   0.465   0.371
   43DMSO     O  424   0.179   0.543   0.633
   43DMSO     H  425   0.307   0.268   0.674
   43DMSO     H  426   0.331   0.227   0.502
   43DMSO     H  427   0.412   0.371   0.572
   43DMSO     H  428   0.337   0.516   0.383
   43DMSO     H  429   0.252   0.380   0.305
   43DMSO     H  430   0.168   0.535   0.327
   44DMSO     C  431   0.075   2.474   0.238
   44DMSO     S  432   0.245   2.490   0.298
   44DMSO     C  433   0.251   2.331   0.381
   44DMSO     O  434   0.244   2.608   0.416
   44DMSO     H  435   0.047   2.566   0.186
   44DMSO     H  436   0.069   2.390   0.169
   44DMSO     H  437   0.007   2.457   0.323
   44DMSO     H  438   0.171   2.324   0.456
   44DMSO     H  439   0.240   2.250   0.309
   44DMSO     H  440   0.348   2.320   0.431
   45DMSO     C  441   3.325   0.875   1.479
   45DMSO     S  442   3.236   0.788   1.611
   45DMSO     C  443   3.331   0.858   1.747
   45DMSO     O  444   3.277   0.627   1.599
   45DMSO     H  445   3.286   0.843   1.383
   45DMSO     H  446   3.310   0.983   1.490
   45DMSO     H  447   3.432   0.852   1.485
   45DMSO     H  448   3.438   0.836   1.734
   45DMSO     H  449   3.316   0.966   1.751
   45DMSO     H  450   3.297   0.814   1.841
   46DMSO     C  451   2.419   1.529   2.459
   46DMSO     S  452   2.304   1.562   2.322
   46DMSO     C  453   2.421   1.657   2.223
   46DMSO     O  454   2.190   1.668   2.380
   46DMSO     H  455   2.366   1.474   2.537
   46DMSO     H  456   2.502   1.468   2.423
   46DMSO     H  457   2.457   1.624   2.500
   46DMSO     H  458   2.460   1.743   2.281
   46DMSO     H  459   2.505   1.594   2.193
   46DMSO     H  460   2.371   1.693   2.133
   47DMSO     C  461   1.807  -0.019   3.903
   47DMSO     S  462   1.950  -0.059   3.799
   47DMSO     C  463   1.970   0.106   3.730
   47DMSO     O  464   1.894  -0.158   3.677
   47DMSO     H  465   1.773  -0.109   3.953
   47DMSO     H  466   1.837   0.055   3.978
   47DMSO     H  467   1.726   0.022   3.841
   47DMSO     H  468   1.877   0.139   3.680
   47DMSO     H  469   1.996   0.176   3.809
   47DMSO     H  470   2.052   0.104   3.657
   48DMSO     C  471   1.244   1.092   0.193
   48DMSO     S  472   1.315   1.162   0.041
   48DMSO     C  473   1.412   1.017  -0.003
   48DMSO     O  474   1.421   1.281   0.088
   48DMSO     H  475   1.182   1.167   0.241
   48DMSO     H  476   1.182   1.006   0.168
   48DMSO     H  477   1.325   1.061   0.260
   48DMSO     H  478   1.481   0.991   0.078
   48DMSO     H  479   1.345   0.933  -0.023
   48DMSO     H  480   1.469   1.039  -0.094
   49DMSO     C  481   2.362   0.953   3.109
   49DMSO     S  482   2.283   0.855   2.978
   49DMSO     C  483   2.279   0.988   2.856
   49DMSO     O  484   2.127   0.827   3.026
   49DMSO     H  485   2.371   0.892   3.198
   49DMSO     H  486   2.462   0.984   3.076
   49DMSO     H  487   2.302   1.042   3.131
   49DMSO     H  488   2.225   1.075   2.895
   49DMSO     H  489   2.381   1.018   2.830
   49DMSO     H  490   2.229   0.952   2.766
   50DMSO     C  491   3.077   1.657   2.158
   50DMSO     S  492   3.059   1.613   2.334
   50DMSO     C  493   2.931   1.734   2.371
   50DMSO     O  494   3.198   1.662   2.410
   50DMSO     H  495   3.155   1.596   2.114
   50DMSO     H  496   2.982   1.637   2.106
   50DMSO     H  497   3.101   1.764   2.149
   50DMSO     H  498   2.966   1.835   2.346
   50DMSO     H  499   2.841   1.712   2.313
   50DMSO     H  500   2.907   1.729   2.477
   51DMSO     C  501   2.325   3.146   1.625
   51DMSO     S  502   2.351   2.968   1.599
   51DMSO     C  503   2.522   2.966   1.657
   51DMSO     O  504   2.355   2.943   1.435
   51DMSO     H  505   2.225   3.172   1.590
   51DMSO     H  506   2.333   3.169   1.731
   51DMSO     H  507   2.400   3.203   1.568
   51DMSO     H  508   2.583   3.037   1.599
   51DMSO     H  509   2.525   2.994   1.763
   51DMSO     H  510   2.562   2.865   1.646
   52DMSO     C  511   1.136   2.783   1.564
   52DMSO     S  512   0.973   2.860   1.587
   52DMSO     C  513   0.881   2.736   1.494
   52DMSO     O  514   0.972   3.000   1.499
   52DMSO     H  515   1.211   2.846   1.610
   52DMSO     H  516   1.137   2.685   1.611
   52DMSO     H  517   1.157   2.773   1.456
   52DMSO     H  518   0.920   2.729   1.391
   52DMSO     H  519   0.889   2.639   1.543
   52DMSO     H  520   0.775   2.766   1.491
   53DMSO     C  521   0.708   3.352   0.493
   53DMSO     S  522   0.807   3.282   0.628
   53DMSO     C  523   0.668   3.217   0.721
   53DMSO     O  524   0.869   3.411   0.713
   53DMSO     H  525   0.774   3.403   0.423
   53DMSO     H  526   0.656   3.271   0.440
   53DMSO     H  527   0.635   3.423   0.533
   53DMSO     H  528   0.597   3.297   0.746
   53DMSO     H  529   0.617   3.140   0.663
   53DMSO     H  530   0.705   3.172   0.814
   54DMSO     C  531   2.684   2.629   2.183
   54DMSO     S  532   2.655   2.667   2.008
   54DMSO     C  533   2.779   2.554   1.943
   54DMSO     O  534   2.709   2.822   1.982
   54DMSO     H  535   2.620   2.692   2.244
   54DMSO     H  536   2.660   2.524   2.202
   54DMSO     H  537   2.790   2.648   2.207
   54DMSO     H  538   2.878   2.578   1.985
   54DMSO     H  539   2.753   2.452   1.968
   54DMSO     H  540   2.783   2.564   1.834
   55DMSO     C  541   2.809   0.737   2.625
   55DMSO     S  542   2.977   0.792   2.584
   55DMSO     C  543   2.964   0.953   2.665
   55DMSO     O  544   2.981   0.820   2.420
   55DMSO     H  545   2.793   0.639   2.580
   55DMSO     H  546   2.799   0.728   2.733
   55DMSO     H  547   2.736   0.809   2.586
   55DMSO     H  548   2.880   1.010   2.624
   55DMSO     H  549   2.950   0.939   2.773
   55DMSO     H  550   3.057   1.008   2.649
   56DMSO     C  551   3.441   0.374   0.767
   56DMSO     S  552   3.297   0.278   0.820
   56DMSO     C  553   3.177   0.364   0.717
   56DMSO     O  554   3.266   0.320   0.978
   56DMSO     H  555   3.528   0.341   0.823
   56DMSO     H  556   3.458   0.359   0.660
   56DMSO     H  557   3.423   0.481   0.786
   56DMSO     H  558   3.178   0.472   0.739
   56DMSO     H  559   3.201   0.349   0.612
   56DMSO     H  560   3.077   0.324   0.736
   57DMSO     C  561   2.204   2.378   0.913
   57DMSO     S  562   2.303   2.285   1.034
   57DMSO     C  563   2.368   2.430   1.120
   57DMSO     O  564   2.428   2.215   0.951
   57DMSO     H  565   2.157   2.308   0.845
   57DMSO     H  566   2.127   2.435   0.965
   57DMSO     H  567   2.269   2.447   0.857
   57DMSO     H  568   2.422   2.495   1.049
   57DMSO     H  569   2.287   2.486   1.166
   57DMSO     H  570   2.437   2.397   1.198
   58DMSO     C  571   0.633   1.881   2.528
   58DMSO     S  572   0.465   1.947   2.527
   58DMSO     C  573   0.407   1.852   2.669
   58DMSO     O  574   0.389   1.887   2.392
   58DMSO     H  575   0.688   1.923   2.444
   58DMSO     H  576   0.683   1.909   2.621
   58DMSO     H  577   0.630   1.771   2.519
   58DMSO     H  578   0.420   1.744   2.650
   58DMSO     H  579   0.462   1.880   2.758
   58DMSO     H  580   0.301   1.873   2.685
   59DMSO     C  581   0.533   2.270   0.631
   59DMSO     S  582   0.564   2.105   0.700
   59DMSO     C  583   0.737   2.096   0.649
   59DMSO     O  584   0.478   1.997   0.608
   59DMSO     H  585   0.429   2.296   0.648
   59DMSO     H  586   0.597   2.343   0.682
   59DMSO     H  587   0.556   2.270   0.524
   59DMSO     H  588   0.745   2.108   0.540
   59DMSO     H  589   0.795   2.173   0.699
   59DMSO     H  590   0.777   1.998   0.677
   60DMSO     C  591   1.355   2.835   0.380
   60DMSO     S  592   1.499   2.733   0.340
   60DMSO     C  593   1.578   2.855   0.232
   60DMSO     O  594   1.446   2.609   0.244
   60DMSO     H  595   1.288   2.778   0.443
   60DMSO     H  596   1.387   2.925   0.433
   60DMSO     H  597   1.303   2.864   0.287
   60DMSO     H  598   1.511   2.883   0.150
   60DMSO     H  599   1.604   2.944   0.289
   60DMSO     H  600   1.670   2.811   0.191
   61DMSO     C  601   3.573   0.997   2.902
   61DMSO     S  602   3.476   1.148   2.879
   61DMSO     C  603   3.497   1.156   2.700
   61DMSO     O  604   3.563   1.273   2.946
   61DMSO     H  605   3.578   0.974   3.009
   61DMSO     H  606   3.525   0.914   2.850
   61DMSO     H  607   3.675   1.012   2.863
   61DMSO     H  608   3.604   1.160   2.675
   61DMSO     H  609   3.451   1.069   2.653
   61DMSO     H  610   3.448   1.247   2.663
   62DMSO     C  611   1.109   2.321   0.541
   62DMSO     S  612   0.983   2.244   0.648
   62DMSO     C  613   0.841   2.306   0.556
   62DMSO     O  614   0.988   2.325   0.793
   62DMSO     H  615   1.207   2.299   0.582
   62DMSO     H  616   1.102   2.278   0.441
   62DMSO     H  617   1.093   2.429   0.537
   62DMSO     H  618   0.844   2.416   0.550
   62DMSO     H  619   0.841   2.265   0.455
   62DMSO     H  620   0.750   2.275   0.607
   63DMSO     C  621   2.377   2.802   2.592
   63DMSO     S  622   2.549   2.838   2.545
   63DMSO     C  623   2.518   2.848   2.368
   63DMSO     O  624   2.636   2.700   2.573
   63DMSO     H  625   2.372   2.787   2.699
   63DMSO     H  626   2.313   2.887   2.564
   63DMSO     H  627   2.343   2.712   2.539
   63DMSO     H  628   2.474   2.755   2.332
   63DMSO     H  629   2.451   2.931   2.347
   63DMSO     H  630   2.614   2.865   2.317
   64DMSO     C  631   2.180   3.804   1.933
   64DMSO     S  632   2.283   3.866   1.798
   64DMSO     C  633   2.194   3.781   1.666
   64DMSO     O  634   2.431   3.794   1.813
   64DMSO     H  635   2.219   3.841   2.028
   64DMSO     H  636   2.077   3.841   1.921
   64DMSO     H  637   2.180   3.694   1.933
   64DMSO     H  638   2.193   3.673   1.684
   64DMSO     H  639   2.092   3.818   1.660
   64DMSO     H  640   2.244   3.802   1.571
   65DMSO     C  641   0.290   0.360   2.610
   65DMSO     S  642   0.376   0.517   2.579
   65DMSO     C  643   0.467   0.519   2.735
   65DMSO     O  644   0.261   0.637   2.587
   65DMSO     H  645   0.223   0.340   2.527
   65DMSO     H  646   0.364   0.279   2.617
   65DMSO     H  647   0.233   0.367   2.704
   65DMSO     H  648   0.398   0.514   2.820
   65DMSO     H  649   0.536   0.434   2.738
   65DMSO     H  650   0.525   0.612   2.740
   66DMSO     C  651   0.533   0.514   3.787
   66DMSO     S  652   0.614   0.372   3.708
   66DMSO     C  653   0.770   0.456   3.674
   66DMSO     O  654   0.538   0.348   3.562
   66DMSO     H  655   0.431   0.486   3.813
   66DMSO     H  656   0.587   0.540   3.878
   66DMSO     H  657   0.532   0.599   3.718
   66DMSO     H  658   0.753   0.546   3.614
   66DMSO     H  659   0.818   0.484   3.768
   66DMSO     H  660   0.836   0.388   3.620
   67DMSO     C  661   0.735   2.920   1.170
   67DMSO     S  662   0.555   2.941   1.162
   67DMSO     C  663   0.556   3.064   1.030
   67DMSO     O  664   0.508   3.017   1.302
   67DMSO     H  665   0.759   2.850   1.249
   67DMSO     H  666   0.771   2.880   1.074
   67DMSO     H  667   0.782   3.017   1.190
   67DMSO     H  668   0.616   3.151   1.060
   67DMSO     H  669   0.597   3.021   0.939
   67DMSO     H  670   0.453   3.096   1.011
   68DMSO     C  671   1.597   1.405   2.207
   68DMSO     S  672   1.523   1.530   2.097
   68DMSO     C  673   1.616   1.481   1.950
   68DMSO     O  674   1.581   1.677   2.147
   68DMSO     H  675   1.557   1.419   2.307
   68DMSO     H  676   1.570   1.305   2.171
   68DMSO     H  677   1.706   1.416   2.208
   68DMSO     H  678   1.724   1.487   1.970
   68DMSO     H  679   1.589   1.380   1.921
   68DMSO     H  680   1.590   1.549   1.868
   69DMSO     C  681   1.251   1.135   2.262
   69DMSO     S  682   1.177   1.052   2.119
   69DMSO     C  683   1.275   1.138   1.995
   69DMSO     O  684   1.021   1.107   2.106
   69DMSO     H  685   1.202   1.100   2.353
   69DMSO     H  686   1.358   1.110   2.268
   69DMSO     H  687   1.239   1.244   2.253
   69DMSO     H  688   1.262   1.247   2.004
   69DMSO     H  689   1.381   1.114   2.007
   69DMSO     H  690   1.243   1.106   1.895
   70DMSO     C  691   3.682   2.208   3.128
   70DMSO     S  692   3.599   2.370   3.124
   70DMSO     C  693   3.654   2.415   2.959
   70DMSO     O  694   3.679   2.467   3.232
   70DMSO     H  695   3.665   2.162   3.225
   70DMSO     H  696   3.640   2.144   3.050
   70DMSO     H  697   3.789   2.221   3.111
   70DMSO     H  698   3.764   2.413   2.953
   70DMSO     H  699   3.613   2.345   2.886
   70DMSO     H  700   3.618   2.516   2.936
   71DMSO     C  701   3.305   3.342   2.667
   71DMSO     S  702   3.143   3.329   2.586
   71DMSO     C  703   3.091   3.497   2.623
   71DMSO     O  704   3.051   3.226   2.679
   71DMSO     H  705   3.356   3.246   2.661
   71DMSO     H  706   3.366   3.417   2.615
   71DMSO     H  707   3.292   3.371   2.772
   71DMSO     H  708   3.093   3.515   2.731
   71DMSO     H  709   3.156   3.568   2.573
   71DMSO     H  710   2.989   3.511   2.586
   72DMSO     C  711   3.574   3.804   1.421
   72DMSO     S  712   3.481   3.775   1.268
   72DMSO     C  713   3.619   3.809   1.156
   72DMSO     O  714   3.373   3.899   1.253
   72DMSO     H  715   3.507   3.792   1.506
   72DMSO     H  716   3.655   3.730   1.429
   72DMSO     H  717   3.616   3.905   1.420
   72DMSO     H  718   3.658   3.910   1.174
   72DMSO     H  719   3.698   3.736   1.172
   72DMSO     H  720   3.583   3.802   1.053
   73DMSO     C  721   3.866   0.003   2.381
   73DMSO     S  722   3.727   0.055   2.486
   73DMSO     C  723   3.712   0.221   2.415
   73DMSO     O  724   3.786   0.072   2.640
   73DMSO     H  725   3.896  -0.097   2.410
   73DMSO     H  726   3.834   0.002   2.276
   73DMSO     H  727   3.950   0.073   2.393
   73DMSO     H  728   3.807   0.275   2.425
   73DMSO     H  729   3.684   0.214   2.310
   73DMSO     H  730   3.633   0.275   2.469
   74DMSO     C  731   0.507   2.592   1.546
   74DMSO     S  732   0.523   2.701   1.690
   74DMSO     C  733   0.511   2.571   1.814
   74DMSO     O  734   0.384   2.791   1.698
   74DMSO     H  735   0.508   2.652   1.456
   74DMSO     H  736   0.592   2.523   1.543
   74DMSO     H  737   0.414   2.535   1.553
   74DMSO     H  738   0.417   2.515   1.801
   74DMSO     H  739   0.595   2.502   1.804
   74DMSO     H  740   0.514   2.616   1.913
   75DMSO     C  741   0.768   0.915   3.559
   75DMSO     S  742   0.765   0.864   3.733
   75DMSO     C  743   0.586   0.875   3.752
   75DMSO     O  744   0.832   0.988   3.820
   75DMSO     H  745   0.871   0.919   3.525
   75DMSO     H  746   0.714   0.841   3.498
   75DMSO     H  747   0.720   1.013   3.548
   75DMSO     H  748   0.551   0.976   3.727
   75DMSO     H  749   0.537   0.803   3.687
   75DMSO     H  750   0.560   0.852   3.856
   76DMSO     C  751   1.912   1.503   3.794
   76DMSO     S  752   1.976   1.355   3.878
   76DMSO     C  753   1.904   1.236   3.763
   76DMSO     O  754   1.894   1.341   4.022
   76DMSO     H  755   1.941   1.591   3.851
   76DMSO     H  756   1.955   1.509   3.694
   76DMSO     H  757   1.802   1.497   3.787
   76DMSO     H  758   1.795   1.249   3.758
   76DMSO     H  759   1.947   1.250   3.664
   76DMSO     H  760   1.928   1.135   3.798
   77DMSO     C  761   1.831   1.412   0.804
   77DMSO     S  762   1.758   1.573   0.763
   77DMSO     C  763   1.854   1.667   0.884
   77DMSO     O  764   1.601   1.570   0.815
   77DMSO     H  765   1.783   1.336   0.743
   77DMSO     H  766   1.938   1.413   0.781
   77DMSO     H  767   1.816   1.390   0.910
   77DMSO     H  768   1.837   1.627   0.985
   77DMSO     H  769   1.960   1.662   0.860
   77DMSO     H  770   1.822   1.772   0.881
   78DMSO     C  771   0.864   2.696   0.161
   78DMSO     S  772   0.886   2.576   0.295
   78DMSO     C  773   0.805   2.675   0.422
   78DMSO     O  774   1.048   2.571   0.331
   78DMSO     H  775   0.911   2.657   0.071
   78DMSO     H  776   0.757   2.710   0.142
   78DMSO     H  777   0.910   2.791   0.189
   78DMSO     H  778   0.855   2.773   0.432
   78DMSO     H  779   0.700   2.690   0.396
   78DMSO     H  780   0.811   2.622   0.518
   79DMSO     C  781   2.166   2.828   1.161
   79DMSO     S  782   2.184   2.657   1.103
   79DMSO     C  783   2.193   2.697   0.928
   79DMSO     O  784   2.039   2.581   1.130
   79DMSO     H  785   2.154   2.828   1.268
   79DMSO     H  786   2.256   2.885   1.134
   79DMSO     H  787   2.078   2.874   1.113
   79DMSO     H  788   2.103   2.752   0.897
   79DMSO     H  789   2.282   2.757   0.908
   79DMSO     H  790   2.200   2.604   0.871
   80DMSO     C  791   3.301   0.782   0.269
   80DMSO     S  792   3.285   0.946   0.346
   80DMSO     C  793   3.328   0.892   0.512
   80DMSO     O  794   3.123   0.984   0.346
   80DMSO     H  795   3.274   0.790   0.164
   80DMSO     H  796   3.404   0.748   0.277
   80DMSO     H  797   3.234   0.711   0.320
   80DMSO     H  798   3.260   0.812   0.546
   80DMSO     H  799   3.431   0.855   0.514
   80DMSO     H  800   3.320   0.977   0.580
   81DMSO     C  801   1.954   0.836   1.373
   81DMSO     S  802   2.007   0.719   1.244
   81DMSO     C  803   1.941   0.813   1.105
   81DMSO     O  804   1.913   0.583   1.261
   81DMSO     H  805   1.981   0.795   1.470
   81DMSO     H  806   2.005   0.931   1.358
   81DMSO     H  807   1.846   0.851   1.367
   81DMSO     H  808   1.833   0.830   1.119
   81DMSO     H  809   1.992   0.909   1.098
   81DMSO     H  810   1.958   0.757   1.013
   82DMSO     C  811   2.163   3.120   3.430
   82DMSO     S  812   2.260   2.967   3.445
   82DMSO     C  813   2.163   2.872   3.327
   82DMSO     O  814   2.230   2.906   3.596
   82DMSO     H  815   2.203   3.194   3.499
   82DMSO     H  816   2.171   3.158   3.328
   82DMSO     H  817   2.058   3.100   3.453
   82DMSO     H  818   2.057   2.869   3.358
   82DMSO     H  819   2.170   2.916   3.228
   82DMSO     H  820   2.202   2.770   3.323
   83DMSO     C  821   2.304   2.471   1.474
   83DMSO     S  822   2.157   2.481   1.579
   83DMSO     C  823   2.084   2.624   1.497
   83DMSO     O  824   2.208   2.531   1.729
   83DMSO     H  825   2.367   2.391   1.510
   83DMSO     H  826   2.273   2.450   1.371
   83DMSO     H  827   2.358   2.566   1.477
   83DMSO     H  828   2.155   2.709   1.498
   83DMSO     H  829   2.060   2.599   1.393
   83DMSO     H  830   1.992   2.653   1.549
   84DMSO     C  831   0.199   3.524   2.388
   84DMSO     S  832   0.296   3.558   2.538
   84DMSO     C  833   0.331   3.385   2.576
   84DMSO     O  834   0.190   3.615   2.652
   84DMSO     H  835   0.163   3.618   2.348
   84DMSO     H  836   0.263   3.476   2.313
   84DMSO     H  837   0.115   3.458   2.412
   84DMSO     H  838   0.237   3.329   2.587
   84DMSO     H  839   0.391   3.341   2.497
   84DMSO     H  840   0.387   3.381   2.670
   85DMSO     C  841   1.021   0.032   2.313
   85DMSO     S  842   0.853   0.099   2.330
   85DMSO     C  843   0.889   0.203   2.473
   85DMSO     O  844   0.756  -0.025   2.382
   85DMSO     H  845   1.022  -0.040   2.232
   85DMSO     H  846   1.091   0.113   2.290
   85DMSO     H  847   1.051  -0.017   2.407
   85DMSO     H  848   0.929   0.142   2.555
   85DMSO     H  849   0.962   0.279   2.446
   85DMSO     H  850   0.797   0.252   2.505
   86DMSO     C  851   2.978   1.702   3.808
   86DMSO     S  852   2.806   1.683   3.752
   86DMSO     C  853   2.772   1.859   3.737
   86DMSO     O  854   2.719   1.626   3.882
   86DMSO     H  855   3.019   1.603   3.829
   86DMSO     H  856   3.037   1.750   3.729
   86DMSO     H  857   2.981   1.763   3.899
   86DMSO     H  858   2.790   1.910   3.833
   86DMSO     H  859   2.836   1.903   3.661
   86DMSO     H  860   2.668   1.873   3.708
   87DMSO     C  861   2.922   1.738   2.863
   87DMSO     S  862   3.024   1.702   3.009
   87DMSO     C  863   3.071   1.873   3.041
   87DMSO     O  864   3.159   1.622   2.955
   87DMSO     H  865   2.885   1.645   2.822
   87DMSO     H  866   2.837   1.801   2.892
   87DMSO     H  867   2.982   1.790   2.787
   87DMSO     H  868   3.121   1.916   2.953
   87DMSO     H  869   2.983   1.932   3.065
   87DMSO     H  870   3.140   1.876   3.126
   88DMSO     C  871   1.437   0.612   0.947
   88DMSO     S  872   1.449   0.530   1.109
   88DMSO     C  873   1.581   0.634   1.173
   88DMSO     O  874   1.514   0.379   1.081
   88DMSO     H  875   1.363   0.561   0.887
   88DMSO     H  876   1.406   0.716   0.962
   88DMSO     H  877   1.535   0.610   0.897
   88DMSO     H  878   1.669   0.631   1.107
   88DMSO     H  879   1.546   0.737   1.182
   88DMSO     H  880   1.609   0.598   1.272
   89DMSO     C  881   2.882   0.276  -0.023
   89DMSO     S  882   2.852   0.352   0.138
   89DMSO     C  883   2.735   0.227   0.196
   89DMSO     O  884   2.766   0.491   0.111
   89DMSO     H  885   2.950   0.339  -0.080
   89DMSO     H  886   2.929   0.178  -0.009
   89DMSO     H  887   2.787   0.264  -0.077
   89DMSO     H  888   2.651   0.218   0.126
   89DMSO     H  889   2.785   0.130   0.204
   89DMSO     H  890   2.698   0.256   0.295
   90DMSO     C  891   2.056   0.381   3.171
   90DMSO     S  892   1.934   0.382   3.037
   90DMSO     C  893   2.055   0.391   2.903
   90DMSO     O  894   1.856   0.529   3.043
   90DMSO     H  895   2.003   0.380   3.266
   90DMSO     H  896   2.117   0.291   3.164
   90DMSO     H  897   2.119   0.470   3.165
   90DMSO     H  898   2.119   0.480   2.915
   90DMSO     H  899   2.116   0.301   2.902
   90DMSO     H  900   2.001   0.398   2.808
   91DMSO     C  901   2.472   0.155   1.918
   91DMSO     S  902   2.640   0.217   1.888
   91DMSO     C  903   2.682   0.241   2.062
   91DMSO     O  904   2.625   0.368   1.819
   91DMSO     H  905   2.423   0.138   1.823
   91DMSO     H  906   2.477   0.061   1.974
   91DMSO     H  907   2.415   0.229   1.976
   91DMSO     H  908   2.610   0.309   2.110
   91DMSO     H  909   2.682   0.145   2.113
   91DMSO     H  910   2.783   0.284   2.068
   92DMSO     C  911   1.319   3.912   2.185
   92DMSO     S  912   1.389   3.753   2.237
   92DMSO     C  913   1.381   3.675   2.074
   92DMSO     O  914   1.277   3.679   2.334
   92DMSO     H  915   1.310   3.976   2.272
   92DMSO     H  916   1.385   3.959   2.111
   92DMSO     H  917   1.220   3.895   2.140
   92DMSO     H  918   1.277   3.675   2.037
   92DMSO     H  919   1.445   3.728   2.004
   92DMSO     H  920   1.416   3.571   2.083
   93DMSO     C  921   1.433   2.267   3.303
   93DMSO     S  922   1.321   2.125   3.318
   93DMSO     C  923   1.215   2.199   3.444
   93DMSO     O  924   1.407   2.003   3.390
   93DMSO     H  925   1.512   2.243   3.232
   93DMSO     H  926   1.378   2.354   3.267
   93DMSO     H  927   1.477   2.290   3.401
   93DMSO     H  928   1.274   2.227   3.532
   93DMSO     H  929   1.165   2.287   3.404
   93DMSO     H  930   1.139   2.126   3.473
   94DMSO     C  931   1.435   3.824   1.411
   94DMSO     S  932   1.416   3.698   1.281
   94DMSO     C  933   1.470   3.559   1.383
   94DMSO     O  934   1.534   3.726   1.168
   94DMSO     H  935   1.411   3.921   1.369
   94DMSO     H  936   1.366   3.803   1.493
   94DMSO     H  937   1.538   3.824   1.448
   94DMSO     H  938   1.571   3.578   1.423
   94DMSO     H  939   1.400   3.545   1.466
   94DMSO     H  940   1.471   3.469   1.322
   95DMSO     C  941   2.009   0.565   2.599
   95DMSO     S  942   1.933   0.555   2.434
   95DMSO     C  943   2.048   0.432   2.369
   95DMSO     O  944   1.963   0.698   2.357
   95DMSO     H  945   1.956   0.640   2.657
   95DMSO     H  946   2.001   0.469   2.649
   95DMSO     H  947   2.114   0.593   2.589
   95DMSO     H  948   2.151   0.470   2.376
   95DMSO     H  949   2.039   0.339   2.425
   95DMSO     H  950   2.023   0.413   2.264
   96DMSO     C  951   2.556   0.639   1.162
   96DMSO     S  952   2.734   0.641   1.126
   96DMSO     C  953   2.717   0.680   0.951
   96DMSO     O  954   2.787   0.484   1.138
   96DMSO     H  955   2.541   0.612   1.266
   96DMSO     H  956   2.514   0.739   1.145
   96DMSO     H  957   2.505   0.567   1.097
   96DMSO     H  958   2.655   0.605   0.901
   96DMSO     H  959   2.672   0.778   0.939
   96DMSO     H  960   2.817   0.682   0.906
   97DMSO     C  961   1.072   1.945   1.858
   97DMSO     S  962   1.080   1.985   2.035
   97DMSO     C  963   0.982   1.844   2.089
   97DMSO     O  964   0.989   2.121   2.058
   97DMSO     H  965   1.123   2.023   1.802
   97DMSO     H  966   1.121   1.849   1.839
   97DMSO     H  967   0.967   1.939   1.826
   97DMSO     H  968   0.883   1.845   2.041
   97DMSO     H  969   1.034   1.751   2.065
   97DMSO     H  970   0.969   1.850   2.198
   98DMSO     C  971   1.861   0.303   1.972
   98DMSO     S  972   1.982   0.250   1.847
   98DMSO     C  973   1.935   0.372   1.723
   98DMSO     O  974   1.933   0.101   1.792
   98DMSO     H  975   1.869   0.237   2.058
   98DMSO     H  976   1.883   0.405   2.003
   98DMSO     H  977   1.760   0.298   1.930
   98DMSO     H  978   1.828   0.363   1.699
   98DMSO     H  979   1.955   0.473   1.761
   98DMSO     H  980   1.994   0.356   1.633
   99DMSO     C  981   2.496   3.342   1.975
   99DMSO     S  982   2.398   3.366   2.126
   99DMSO     C  983   2.253   3.276   2.068
   99DMSO     O  984   2.357   3.527   2.132
   99DMSO     H  985   2.590   3.394   1.986
   99DMSO     H  986   2.515   3.235   1.961
   99DMSO     H  987   2.441   3.381   1.888
   99DMSO     H  988   2.215   3.320   1.974
   99DMSO     H  989   2.278   3.171   2.051
   99DMSO     H  990   2.175   3.281   2.144
  100DMSO     C  991   0.726   3.531   3.397
  100DMSO     S  992   0.815   3.683   3.443
  100DMSO     C  993   0.980   3.618   3.412
  100DMSO     O  994   0.797   3.701   3.607
  100DMSO     H  995   0.620   3.546   3.412
  100DMSO     H  996   0.745   3.509   3.291
  100DMSO     H  997   0.762   3.447   3.458
  100DMSO     H  998   0.998   3.528   3.473
  100DMSO     H  999   0.992   3.594   3.307
  100DMSO     H 1000   1.054   3.695   3.439
  101DMSO     C 1001   3.213   2.637   2.274
  101DMSO     S 1002   3.139   2.777   2.365
  101DMSO     C 1003   3.117   2.688   2.520
  101DMSO     O 1004   2.989   2.802   2.300
  101DMSO     H 1005   3.231   2.668   2.172
  101DMSO     H 1006   3.308   2.609   2.321
  101DMSO     H 1007   3.144   2.552   2.276
  101DMSO     H 1008   3.055   2.599   2.505
  101DMSO     H 1009   3.214   2.659   2.560
  101DMSO     H 1010   3.068   2.754   2.592
  102DMSO     C 1011   0.979   0.504   0.770
  102DMSO     S 1012   1.082   0.559   0.908
  102DMSO     C 1013   1.174   0.404   0.925
  102DMSO     O 1014   0.983   0.573   1.040
  102DMSO     H 1015   0.909   0.583   0.744
  102DMSO     H 1016   1.042   0.482   0.683
  102DMSO     H 1017   0.923   0.413   0.798
  102DMSO     H 1018   1.105   0.321   0.943
  102DMSO     H 1019   1.232   0.385   0.835
  102DMSO     H 1020   1.243   0.413   1.010
  103DMSO     C 1021   0.390   3.313   1.596
  103DMSO     S 1022   0.322   3.423   1.469
  103DMSO     C 1023   0.479   3.457   1.388
  103DMSO     O 1024   0.274   3.562   1.545
  103DMSO     H 1025   0.310   3.282   1.663
  103DMSO     H 1026   0.434   3.224   1.549
  103DMSO     H 1027   0.468   3.366   1.653
  103DMSO     H 1028   0.551   3.500   1.459
  103DMSO     H 1029   0.520   3.365   1.346
  103DMSO     H 1030   0.462   3.528   1.306
  104DMSO     C 1031   3.678   1.824   1.560
  104DMSO     S 1032   3.589   1.675   1.613
  104DMSO     C 1033   3.554   1.615   1.446
  104DMSO     O 1034   3.446   1.724   1.679
  104DMSO     H 1035   3.706   1.881   1.648
  104DMSO     H 1036   3.768   1.796   1.505
  104DMSO     H 1037   3.613   1.885   1.495
  104DMSO     H 1038   3.498   1.690   1.389
  104DMSO     H 1039   3.647   1.592   1.394
  104DMSO     H 1040   3.494   1.523   1.453
  105DMSO     C 1041   0.010   1.254   1.033
  105DMSO     S 1042   0.123   1.297   1.168
  105DMSO     C 1043   0.068   1.468   1.185
  105DMSO     O 1044   0.276   1.300   1.104
  105DMSO     H 1045   0.029   1.151   1.002
  105DMSO     H 1046  -0.093   1.261   1.069
  105DMSO     H 1047   0.025   1.322   0.949
  105DMSO     H 1048   0.079   1.521   1.090
  105DMSO     H 1049  -0.036   1.470   1.216
  105DMSO     H 1050   0.129   1.517   1.262
  106DMSO     C 1051   1.864   0.634   0.123
  106DMSO     S 1052   1.911   0.783   0.031
  106DMSO     C 1053   2.062   0.815   0.124
  106DMSO     O 1054   1.802   0.902   0.072
  106DMSO     H 1055   1.768   0.598   0.085
  106DMSO     H 1056   1.940   0.556   0.108
  106DMSO     H 1057   1.855   0.657   0.230
  106DMSO     H 1058   2.040   0.825   0.231
  106DMSO     H 1059   2.133   0.733   0.109
  106DMSO     H 1060   2.108   0.907   0.088
  107DMSO     C 1061   0.492   0.965   2.531
  107DMSO     S 1062   0.595   1.057   2.413
  107DMSO     C 1063   0.533   0.975   2.265
  107DMSO     O 1064   0.752   1.007   2.436
  107DMSO     H 1065   0.517   0.997   2.632
  107DMSO     H 1066   0.386   0.987   2.511
  107DMSO     H 1067   0.510   0.857   2.520
  107DMSO     H 1068   0.548   0.866   2.273
  107DMSO     H 1069   0.426   0.995   2.253
  107DMSO     H 1070   0.587   1.013   2.178
  108DMSO     C 1071   0.133   3.102   1.917
  108DMSO     S 1072   0.108   3.230   2.043
  108DMSO     C 1073   0.107   3.117   2.184
  108DMSO     O 1074  -0.047   3.287   2.024
  108DMSO     H 1075   0.132   3.149   1.819
  108DMSO     H 1076   0.230   3.054   1.932
  108DMSO     H 1077   0.053   3.027   1.923
  108DMSO     H 1078   0.029   3.041   2.171
  108DMSO     H 1079   0.205   3.069   2.192
  108DMSO     H 1080   0.088   3.175   2.275
  109DMSO     C 1081   2.809   3.280   0.003
  109DMSO     S 1082   2.712   3.402   0.096
  109DMSO     C 1083   2.767   3.348   0.259
  109DMSO     O 1084   2.552   3.358   0.081
  109DMSO     H 1085   2.787   3.292  -0.103
  109DMSO     H 1086   2.916   3.298   0.020
  109DMSO     H 1087   2.783   3.179   0.036
  109DMSO     H 1088   2.744   3.241   0.274
  109DMSO     H 1089   2.874   3.364   0.269
  109DMSO     H 1090   2.715   3.407   0.335
  110DMSO     C 1091   1.675   3.057   2.424
  110DMSO     S 1092   1.544   3.167   2.485
  110DMSO     C 1093   1.538   3.098   2.651
  110DMSO     O 1094   1.404   3.123   2.408
  110DMSO     H 1095   1.693   3.079   2.319
  110DMSO     H 1096   1.767   3.075   2.480
  110DMSO     H 1097   1.644   2.953   2.436
  110DMSO     H 1098   1.518   2.991   2.648
  110DMSO     H 1099   1.633   3.115   2.702
  110DMSO     H 1100   1.459   3.149   2.708
  111DMSO     C 1101   0.583   2.087   0.984
  111DMSO     S 1102   0.464   2.135   1.113
  111DMSO     C 1103   0.549   2.051   1.248
  111DMSO     O 1104   0.324   2.051   1.083
  111DMSO     H 1105   0.547   2.125   0.888
  111DMSO     H 1106   0.680   2.132   1.006
  111DMSO     H 1107   0.592   1.978   0.980
  111DMSO     H 1108   0.561   1.944   1.225
  111DMSO     H 1109   0.648   2.096   1.263
  111DMSO     H 1110   0.491   2.063   1.339
  112DMSO     C 1111   3.400   2.980   3.488
  112DMSO     S 1112   3.230   2.950   3.431
  112DMSO     C 1113   3.261   2.785   3.367
  112DMSO     O 1114   3.205   3.050   3.301
  112DMSO     H 1115   3.406   3.080   3.529
  112DMSO     H 1116   3.425   2.908   3.567
  112DMSO     H 1117   3.470   2.969   3.405
  112DMSO     H 1118   3.341   2.787   3.292
  112DMSO     H 1119   3.289   2.718   3.448
  112DMSO     H 1120   3.169   2.747   3.321
  113DMSO     C 1121   1.880   2.265   0.647
  113DMSO     S 1122   2.005   2.194   0.536
  113DMSO     C 1123   1.909   2.216   0.384
  113DMSO     O 1124   2.011   2.031   0.568
  113DMSO     H 1125   1.916   2.259   0.749
  113DMSO     H 1126   1.865   2.371   0.621
  113DMSO     H 1127   1.785   2.211   0.637
  113DMSO     H 1128   1.812   2.165   0.393
  113DMSO     H 1129   1.893   2.322   0.366
  113DMSO     H 1130   1.965   2.174   0.301
  114DMSO     C 1131   1.206   3.668   3.569
  114DMSO     S 1132   1.286   3.579   3.706
  114DMSO     C 1133   1.185   3.651   3.837
  114DMSO     O 1134   1.439   3.641   3.721
  114DMSO     H 1135   1.256   3.642   3.477
  114DMSO     H 1136   1.101   3.639   3.563
  114DMSO     H 1137   1.213   3.776   3.587
  114DMSO     H 1138   1.193   3.760   3.835
  114DMSO     H 1139   1.081   3.622   3.823
  114DMSO     H 1140   1.220   3.613   3.933
  115DMSO     C 1141   0.363   1.377   3.673
  115DMSO     S 1142   0.536   1.424   3.643
  115DMSO     C 1143   0.593   1.259   3.600
  115DMSO     O 1144   0.601   1.462   3.791
  115DMSO     H 1145   0.308   1.464   3.707
  115DMSO     H 1146   0.319   1.340   3.580
  115DMSO     H 1147   0.358   1.298   3.750
  115DMSO     H 1148   0.572   1.188   3.681
  115DMSO     H 1149   0.542   1.225   3.509
  115DMSO     H 1150   0.700   1.262   3.581
  116DMSO     C 1151   0.582   0.538   1.818
  116DMSO     S 1152   0.748   0.470   1.842
  116DMSO     C 1153   0.817   0.531   1.688
  116DMSO     O 1154   0.735   0.305   1.829
  116DMSO     H 1155   0.519   0.508   1.901
  116DMSO     H 1156   0.587   0.647   1.814
  116DMSO     H 1157   0.540   0.500   1.723
  116DMSO     H 1158   0.758   0.494   1.602
  116DMSO     H 1159   0.816   0.640   1.687
  116DMSO     H 1160   0.920   0.496   1.678
  117DMSO     C 1161   2.554   1.229   0.385
  117DMSO     S 1162   2.691   1.200   0.500
  117DMSO     C 1163   2.592   1.213   0.650
  117DMSO     O 1164   2.789   1.333   0.493
  117DMSO     H 1165   2.593   1.229   0.283
  117DMSO     H 1166   2.480   1.148   0.395
  117DMSO     H 1167   2.506   1.325   0.407
  117DMSO     H 1168   2.541   1.311   0.654
  117DMSO     H 1169   2.518   1.134   0.653
  117DMSO     H 1170   2.658   1.203   0.737
  118DMSO     C 1171   2.440   2.350   2.109
  118DMSO     S 1172   2.344   2.225   2.019
  118DMSO     C 1173   2.338   2.314   1.863
  118DMSO     O 1174   2.191   2.227   2.083
  118DMSO     H 1175   2.452   2.319   2.212
  118DMSO     H 1176   2.538   2.361   2.062
  118DMSO     H 1177   2.387   2.447   2.105
  118DMSO     H 1178   2.293   2.413   1.877
  118DMSO     H 1179   2.439   2.325   1.823
  118DMSO     H 1180   2.279   2.256   1.791
  119DMSO     C 1181   1.770   3.774   3.336
  119DMSO     S 1182   1.832   3.862   3.189
  119DMSO     C 1183   1.866   3.713   3.093
  119DMSO     O 1184   1.977   3.930   3.231
  119DMSO     H 1185   1.746   3.848   3.413
  119DMSO     H 1186   1.680   3.719   3.311
  119DMSO     H 1187   1.847   3.705   3.373
  119DMSO     H 1188   1.936   3.648   3.147
  119DMSO     H 1189   1.774   3.659   3.074
  119DMSO     H 1190   1.911   3.742   2.998
  120DMSO     C 1191   2.258   1.620   2.656
  120DMSO     S 1192   2.412   1.693   2.718
  120DMSO     C 1193   2.367   1.687   2.892
  120DMSO     O 1194   2.413   1.853   2.672
  120DMSO     H 1195   2.262   1.618   2.547
  120DMSO     H 1196   2.248   1.518   2.693
  120DMSO     H 1197   2.173   1.680   2.689
  120DMSO     H 1198   2.273   1.742   2.909
  120DMSO     H 1199   2.354   1.583   2.924
  120DMSO     H 1200   2.447   1.732   2.952
  121DMSO     C 1201   1.536   0.312   2.679
  121DMSO     S 1202   1.536   0.394   2.517
  121DMSO     C 1203   1.546   0.562   2.582
  121DMSO     O 1204   1.384   0.375   2.453
  121DMSO     H 1205   1.526   0.205   2.664
  121DMSO     H 1206   1.631   0.332   2.730
  121DMSO     H 1207   1.453   0.349   2.740
  121DMSO     H 1208   1.462   0.582   2.650
  121DMSO     H 1209   1.640   0.576   2.636
  121DMSO     H 1210   1.542   0.633   2.499
  122DMSO     C 1211   2.909   2.507   1.660
  122DMSO     S 1212   2.912   2.634   1.530
  122DMSO     C 1213   2.853   2.526   1.398
  122DMSO     O 1214   3.071   2.668   1.499
  122DMSO     H 1215   2.946   2.551   1.752
  122DMSO     H 1216   2.806   2.473   1.676
  122DMSO     H 1217   2.972   2.422   1.631
  122DMSO     H 1218   2.920   2.439   1.387
  122DMSO     H 1219   2.752   2.491   1.420
  122DMSO     H 1220   2.851   2.582   1.304
  123DMSO     C 1221   1.318   0.747   0.485
  123DMSO     S 1222   1.153   0.688   0.436
  123DMSO     C 1223   1.061   0.791   0.552
  123DMSO     O 1224   1.141   0.531   0.488
  123DMSO     H 1225   1.393   0.693   0.428
  123DMSO     H 1226   1.326   0.854   0.463
  123DMSO     H 1227   1.333   0.730   0.593
  123DMSO     H 1228   1.095   0.771   0.655
  123DMSO     H 1229   1.077   0.896   0.528
  123DMSO     H 1230   0.955   0.768   0.543
  124DMSO     C 1231   3.260   3.584   1.585
  124DMSO     S 1232   3.149   3.725   1.558
  124DMSO     C 1233   3.030   3.634   1.457
  124DMSO     O 1234   3.228   3.831   1.458
  124DMSO     H 1235   3.346   3.618   1.643
  124DMSO     H 1236   3.208   3.506   1.641
  124DMSO     H 1237   3.294   3.544   1.489
  124DMSO     H 1238   3.080   3.590   1.369
  124DMSO     H 1239   2.983   3.555   1.516
  124DMSO     H 1240   2.952   3.704   1.423
  125DMSO     C 1241   1.908   0.916   1.814
  125DMSO     S 1242   2.034   0.996   1.918
  125DMSO     C 1243   2.015   1.160   1.847
  125DMSO     O 1244   2.181   0.937   1.869
  125DMSO     H 1245   1.905   0.810   1.838
  125DMSO     H 1246   1.810   0.961   1.835
  125DMSO     H 1247   1.933   0.930   1.708
  125DMSO     H 1248   2.033   1.157   1.738
  125DMSO     H 1249   1.915   1.198   1.867
  125DMSO     H 1250   2.088   1.228   1.893
  126DMSO     C 1251   0.814   3.146   2.269
  126DMSO     S 1252   0.693   3.247   2.179
  126DMSO     C 1253   0.760   3.215   2.015
  126DMSO     O 1254   0.725   3.405   2.217
  126DMSO     H 1255   0.795   3.154   2.375
  126DMSO     H 1256   0.804   3.041   2.238
  126DMSO     H 1257   0.916   3.181   2.246
  126DMSO     H 1258   0.865   3.245   2.010
  126DMSO     H 1259   0.751   3.109   1.991
  126DMSO     H 1260   0.702   3.273   1.942
  127DMSO     C 1261   0.414   1.127   0.904
  127DMSO     S 1262   0.380   1.305   0.897
  127DMSO     C 1263   0.446   1.330   0.731
  127DMSO     O 1264   0.485   1.378   1.003
  127DMSO     H 1265   0.385   1.089   1.002
  127DMSO     H 1266   0.355   1.076   0.827
  127DMSO     H 1267   0.520   1.108   0.887
  127DMSO     H 1268   0.551   1.296   0.726
  127DMSO     H 1269   0.387   1.273   0.659
  127DMSO     H 1270   0.441   1.436   0.706
  128DMSO     C 1271   1.612   2.490   2.323
  128DMSO     S 1272   1.564   2.461   2.150
  128DMSO     C 1273   1.387   2.486   2.176
  128DMSO     O 1274   1.588   2.300   2.120
  128DMSO     H 1275   1.719   2.475   2.333
  128DMSO     H 1276   1.588   2.593   2.351
  128DMSO     H 1277   1.559   2.420   2.389
  128DMSO     H 1278   1.350   2.417   2.253
  128DMSO     H 1279   1.369   2.589   2.208
  128DMSO     H 1280   1.335   2.469   2.082
  129DMSO     C 1281   1.406   0.727   3.106
  129DMSO     S 1282   1.405   0.674   2.932
  129DMSO     C 1283   1.538   0.553   2.950
  129DMSO     O 1284   1.465   0.801   2.843
  129DMSO     H 1285   1.333   0.807   3.118
  129DMSO     H 1286   1.378   0.643   3.170
  129DMSO     H 1287   1.506   0.763   3.133
  129DMSO     H 1288   1.629   0.601   2.989
  129DMSO     H 1289   1.507   0.474   3.018
  129DMSO     H 1290   1.559   0.509   2.852
  130DMSO     C 1291   2.547   0.195   3.637
  130DMSO     S 1292   2.599   0.095   3.494
  130DMSO     C 1293   2.478   0.163   3.379
  130DMSO     O 1294   2.555  -0.062   3.527
  130DMSO     H 1295   2.606   0.167   3.723
  130DMSO     H 1296   2.563   0.301   3.615
  130DMSO     H 1297   2.440   0.178   3.657
  130DMSO     H 1298   2.376   0.148   3.418
  130DMSO     H 1299   2.496   0.269   3.364
  130DMSO     H 1300   2.488   0.111   3.283
  131DMSO     C 1301   1.048   1.432   2.780
  131DMSO     S 1302   0.951   1.286   2.732
  131DMSO     C 1303   1.061   1.166   2.811
  131DMSO     O 1304   0.968   1.268   2.568
  131DMSO     H 1305   1.001   1.521   2.737
  131DMSO     H 1306   1.049   1.441   2.889
  131DMSO     H 1307   1.151   1.423   2.742
  131DMSO     H 1308   1.163   1.175   2.771
  131DMSO     H 1309   1.062   1.182   2.918
  131DMSO     H 1310   1.023   1.065   2.790
  132DMSO     C 1311   3.488   3.412   3.750
  132DMSO     S 1312   3.436   3.519   3.612
  132DMSO     C 1313   3.496   3.673   3.685
  132DMSO     O 1314   3.270   3.524   3.615
  132DMSO     H 1315   3.457   3.310   3.729
  132DMSO     H 1316   3.597   3.415   3.759
  132DMSO     H 1317   3.442   3.447   3.843
  132DMSO     H 1318   3.449   3.689   3.784
  132DMSO     H 1319   3.604   3.669   3.696
  132DMSO     H 1320   3.470   3.756   3.619
  133DMSO     C 1321   2.988   3.440   1.184
  133DMSO     S 1322   3.074   3.349   1.053
  133DMSO     C 1323   2.983   3.421   0.916
  133DMSO     O 1324   3.027   3.190   1.066
  133DMSO     H 1325   3.026   3.408   1.281
  133DMSO     H 1326   3.007   3.547   1.172
  133DMSO     H 1327   2.880   3.421   1.178
  133DMSO     H 1328   2.875   3.404   0.929
  133DMSO     H 1329   3.002   3.529   0.911
  133DMSO     H 1330   3.016   3.375   0.823
  134DMSO     C 1331   1.687   1.730   0.566
  134DMSO     S 1332   1.575   1.628   0.467
  134DMSO     C 1333   1.645   1.673   0.307
  134DMSO     O 1334   1.424   1.698   0.477
  134DMSO     H 1335   1.659   1.721   0.671
  134DMSO     H 1336   1.790   1.694   0.554
  134DMSO     H 1337   1.681   1.835   0.534
  134DMSO     H 1338   1.642   1.782   0.293
  134DMSO     H 1339   1.748   1.639   0.301
  134DMSO     H 1340   1.587   1.625   0.228
  135DMSO     C 1341   3.714   0.294   1.727
  135DMSO     S 1342   3.657   0.169   1.610
  135DMSO     C 1343   3.751   0.231   1.469
  135DMSO     O 1344   3.496   0.199   1.580
  135DMSO     H 1345   3.664   0.278   1.823
  135DMSO     H 1346   3.822   0.285   1.741
  135DMSO     H 1347   3.690   0.395   1.689
  135DMSO     H 1348   3.724   0.336   1.449
  135DMSO     H 1349   3.858   0.224   1.489
  135DMSO     H 1350   3.727   0.171   1.381
  136DMSO     C 1351   3.322   2.824   0.137
  136DMSO     S 1352   3.162   2.892   0.085
  136DMSO     C 1353   3.217   3.063   0.071
  136DMSO     O 1354   3.061   2.883   0.217
  136DMSO     H 1355   3.311   2.718   0.156
  136DMSO     H 1356   3.395   2.839   0.056
  136DMSO     H 1357   3.357   2.876   0.227
  136DMSO     H 1358   3.260   3.097   0.166
  136DMSO     H 1359   3.293   3.071  -0.007
  136DMSO     H 1360   3.132   3.126   0.044
  137DMSO     C 1361   1.359   3.436   2.634
  137DMSO     S 1362   1.277   3.362   2.778
  137DMSO     C 1363   1.109   3.397   2.724
  137DMSO     O 1364   1.310   3.460   2.908
  137DMSO     H 1365   1.466   3.430   2.647
  137DMSO     H 1366   1.330   3.381   2.544
  137DMSO     H 1367   1.328   3.541   2.624
  137DMSO     H 1368   1.096   3.505   2.708
  137DMSO     H 1369   1.087   3.344   2.632
  137DMSO     H 1370   1.039   3.364   2.802
  138DMSO     C 1371   3.201   2.383   0.809
  138DMSO     S 1372   3.184   2.243   0.923
  138DMSO     C 1373   3.183   2.341   1.074
  138DMSO     O 1374   3.328   2.160   0.919
  138DMSO     H 1375   3.208   2.345   0.708
  138DMSO     H 1376   3.112   2.447   0.817
  138DMSO     H 1377   3.290   2.441   0.834
  138DMSO     H 1378   3.274   2.402   1.080
  138DMSO     H 1379   3.096   2.406   1.075
  138DMSO     H 1380   3.178   2.274   1.160
  139DMSO     C 1381   2.046   2.210   3.409
  139DMSO     S 1382   1.867   2.190   3.381
  139DMSO     C 1383   1.835   2.098   3.533
  139DMSO     O 1384   1.850   2.085   3.254
  139DMSO     H 1385   2.089   2.262   3.324
  139DMSO     H 1386   2.062   2.270   3.499
  139DMSO     H 1387   2.092   2.112   3.421
  139DMSO     H 1388   1.897   2.008   3.536
  139DMSO     H 1389   1.857   2.161   3.619
  139DMSO     H 1390   1.729   2.070   3.535
  140DMSO     C 1391   3.752   2.980   2.471
  140DMSO     S 1392   3.809   3.132   2.554
  140DMSO     C 1393   3.737   3.246   2.434
  140DMSO     O 1394   3.974   3.138   2.536
  140DMSO     H 1395   3.790   2.895   2.526
  140DMSO     H 1396   3.643   2.978   2.471
  140DMSO     H 1397   3.790   2.978   2.368
  140DMSO     H 1398   3.776   3.225   2.334
  140DMSO     H 1399   3.628   3.237   2.435
  140DMSO     H 1400   3.763   3.348   2.463
  141DMSO     C 1401   0.264   1.725   1.334
  141DMSO     S 1402   0.436   1.707   1.280
  141DMSO     C 1403   0.423   1.533   1.234
  141DMSO     O 1404   0.530   1.716   1.416
  141DMSO     H 1405   0.249   1.826   1.372
  141DMSO     H 1406   0.197   1.709   1.249
  141DMSO     H 1407   0.241   1.652   1.413
  141DMSO     H 1408   0.389   1.473   1.320
  141DMSO     H 1409   0.352   1.522   1.152
  141DMSO     H 1410   0.521   1.498   1.201
  142DMSO     C 1411   3.547   0.624   3.278
  142DMSO     S 1412   3.512   0.519   3.134
  142DMSO     C 1413   3.355   0.595   3.093
  142DMSO     O 1414   3.480   0.366   3.192
  142DMSO     H 1415   3.640   0.591   3.324
  142DMSO     H 1416   3.558   0.728   3.246
  142DMSO     H 1417   3.465   0.616   3.351
  142DMSO     H 1418   3.286   0.590   3.178
  142DMSO     H 1419   3.370   0.700   3.065
  142DMSO     H 1420   3.311   0.543   3.007
  143DMSO     C 1421   2.572   3.202   3.249
  143DMSO     S 1422   2.654   3.182   3.088
  143DMSO     C 1423   2.709   3.013   3.116
  143DMSO     O 1424   2.789   3.279   3.091
  143DMSO     H 1425   2.533   3.303   3.257
  143DMSO     H 1426   2.489   3.131   3.256
  143DMSO     H 1427   2.644   3.182   3.330
  143DMSO     H 1428   2.771   3.007   3.207
  143DMSO     H 1429   2.622   2.947   3.127
  143DMSO     H 1430   2.767   2.980   3.030
  144DMSO     C 1431   0.907   1.757   1.224
  144DMSO     S 1432   0.994   1.848   1.092
  144DMSO     C 1433   0.937   1.744   0.957
  144DMSO     O 1434   1.156   1.819   1.113
  144DMSO     H 1435   0.931   1.802   1.319
  144DMSO     H 1436   0.799   1.765   1.207
  144DMSO     H 1437   0.937   1.652   1.223
  144DMSO     H 1438   0.965   1.639   0.975
  144DMSO     H 1439   0.828   1.751   0.948
  144DMSO     H 1440   0.982   1.778   0.864
  145DMSO     C 1441   1.279   3.376   0.441
  145DMSO     S 1442   1.169   3.233   0.463
  145DMSO     C 1443   1.149   3.253   0.642
  145DMSO     O 1444   1.260   3.097   0.438
  145DMSO     H 1445   1.309   3.381   0.337
  145DMSO     H 1446   1.226   3.468   0.468
  145DMSO     H 1447   1.367   3.365   0.505
  145DMSO     H 1448   1.247   3.250   0.691
  145DMSO     H 1449   1.099   3.347   0.663
  145DMSO     H 1450   1.087   3.171   0.679
  146DMSO     C 1451   1.164   2.613   1.846
  146DMSO     S 1452   1.017   2.659   1.943
  146DMSO     C 1453   0.917   2.710   1.802
  146DMSO     O 1454   1.057   2.795   2.029
  146DMSO     H 1455   1.242   2.581   1.914
  146DMSO     H 1456   1.138   2.530   1.779
  146DMSO     H 1457   1.197   2.699   1.787
  146DMSO     H 1458   0.969   2.790   1.746
  146DMSO     H 1459   0.899   2.625   1.736
  146DMSO     H 1460   0.821   2.748   1.838
  147DMSO     C 1461   3.385   3.435   1.055
  147DMSO     S 1462   3.400   3.254   1.059
  147DMSO     C 1463   3.575   3.251   1.102
  147DMSO     O 1464   3.386   3.201   0.902
  147DMSO     H 1465   3.283   3.461   1.025
  147DMSO     H 1466   3.405   3.475   1.154
  147DMSO     H 1467   3.457   3.476   0.983
  147DMSO     H 1468   3.634   3.306   1.027
  147DMSO     H 1469   3.590   3.296   1.200
  147DMSO     H 1470   3.609   3.147   1.105
  148DMSO     C 1471   2.668   0.744   0.298
  148DMSO     S 1472   2.602   0.912   0.319
  148DMSO     C 1473   2.647   0.928   0.493
  148DMSO     O 1474   2.437   0.900   0.310
  148DMSO     H 1475   2.647   0.710   0.197
  148DMSO     H 1476   2.776   0.745   0.314
  148DMSO     H 1477   2.621   0.676   0.371
  148DMSO     H 1478   2.601   0.847   0.552
  148DMSO     H 1479   2.755   0.924   0.504
  148DMSO     H 1480   2.611   1.024   0.530
  149DMSO     C 1481   2.395   1.342   3.186
  149DMSO     S 1482   2.506   1.426   3.302
  149DMSO     C 1483   2.473   1.318   3.443
  149DMSO     O 1484   2.438   1.574   3.335
  149DMSO     H 1485   2.396   1.394   3.092
  149DMSO     H 1486   2.430   1.239   3.171
  149DMSO     H 1487   2.293   1.340   3.227
  149DMSO     H 1488   2.365   1.318   3.465
  149DMSO     H 1489   2.505   1.217   3.420
  149DMSO     H 1490   2.528   1.355   3.530
  150DMSO     C 1491   2.230   2.424   3.111
  150DMSO     S 1492   2.234   2.504   3.274
  150DMSO     C 1493   2.068   2.575   3.263
  150DMSO     O 1494   2.343   2.629   3.264
  150DMSO     H 1495   2.326   2.376   3.093
  150DMSO     H 1496   2.151   2.348   3.109
  150DMSO     H 1497   2.210   2.499   3.033
  150DMSO     H 1498   2.060   2.639   3.175
  150DMSO     H 1499   1.994   2.495   3.258
  150DMSO     H 1500   2.050   2.634   3.353
  151DMSO     C 1501   2.780   2.368   3.130
  151DMSO     S 1502   2.635   2.272   3.080
  151DMSO     C 1503   2.589   2.378   2.942
  151DMSO     O 1504   2.521   2.291   3.198
  151DMSO     H 1505   2.824   2.323   3.219
  151DMSO     H 1506   2.854   2.368   3.050
  151DMSO     H 1507   2.750   2.472   3.152
  151DMSO     H 1508   2.573   2.481   2.977
  151DMSO     H 1509   2.668   2.377   2.866
  151DMSO     H 1510   2.497   2.340   2.897
  152DMSO     C 1511  -0.062   1.962   0.146
  152DMSO     S 1512  -0.010   1.903  -0.018
  152DMSO     C 1513   0.085   1.762   0.042
  152DMSO     O 1514   0.097   2.014  -0.078
  152DMSO     H 1515  -0.119   2.053   0.134
  152DMSO     H 1516  -0.124   1.886   0.194
  152DMSO     H 1517   0.027   1.981   0.208
  152DMSO     H 1518   0.163   1.796   0.112
  152DMSO     H 1519   0.019   1.692   0.093
  152DMSO     H 1520   0.131   1.712  -0.043
  153DMSO     C 1521   0.460   3.204   0.151
  153DMSO     S 1522   0.288   3.147   0.167
  153DMSO     C 1523   0.279   3.070   0.004
  153DMSO     O 1524   0.192   3.282   0.163
  153DMSO     H 1525   0.486   3.260   0.240
  153DMSO     H 1526   0.526   3.118   0.141
  153DMSO     H 1527   0.469   3.268   0.062
  153DMSO     H 1528   0.302   3.143  -0.074
  153DMSO     H 1529   0.350   2.987  -0.002
  153DMSO     H 1530   0.178   3.030  -0.011
  154DMSO     C 1531   1.962   2.789   0.363
  154DMSO     S 1532   2.024   2.846   0.524
  154DMSO     C 1533   1.915   2.742   0.623
  154DMSO     O 1534   1.973   3.003   0.542
  154DMSO     H 1535   2.013   2.844   0.284
  154DMSO     H 1536   1.984   2.682   0.351
  154DMSO     H 1537   1.854   2.805   0.356
  154DMSO     H 1538   1.810   2.762   0.598
  154DMSO     H 1539   1.938   2.637   0.605
  154DMSO     H 1540   1.932   2.764   0.729
  155DMSO     C 1541   0.601   3.056   3.398
  155DMSO     S 1542   0.637   3.231   3.432
  155DMSO     C 1543   0.465   3.285   3.435
  155DMSO     O 1544   0.706   3.293   3.294
  155DMSO     H 1545   0.694   3.002   3.388
  155DMSO     H 1546   0.544   3.014   3.482
  155DMSO     H 1547   0.541   3.047   3.306
  155DMSO     H 1548   0.415   3.260   3.340
  155DMSO     H 1549   0.412   3.237   3.518
  155DMSO     H 1550   0.462   3.393   3.450
  156DMSO     C 1551   1.828   1.449   2.530
  156DMSO     S 1552   1.893   1.478   2.697
  156DMSO     C 1553   1.894   1.305   2.747
  156DMSO     O 1554   1.773   1.554   2.783
  156DMSO     H 1555   1.814   1.545   2.481
  156DMSO     H 1556   1.900   1.390   2.473
  156DMSO     H 1557   1.732   1.396   2.536
  156DMSO     H 1558   1.794   1.262   2.737
  156DMSO     H 1559   1.964   1.249   2.684
  156DMSO     H 1560   1.927   1.298   2.851
  157DMSO     C 1561   3.798   2.726   0.590
  157DMSO     S 1562   3.700   2.708   0.742
  157DMSO     C 1563   3.599   2.570   0.683
  157DMSO     O 1564   3.601   2.841   0.751
  157DMSO     H 1565   3.865   2.810   0.601
  157DMSO     H 1566   3.856   2.635   0.574
  157DMSO     H 1567   3.731   2.742   0.504
  157DMSO     H 1568   3.547   2.598   0.590
  157DMSO     H 1569   3.663   2.484   0.664
  157DMSO     H 1570   3.526   2.545   0.760
  158DMSO     C 1571   1.623   1.253   3.099
  158DMSO     S 1572   1.524   1.272   2.948
  158DMSO     C 1573   1.581   1.120   2.869
  158DMSO     O 1574   1.588   1.399   2.864
  158DMSO     H 1575   1.606   1.339   3.163
  158DMSO     H 1576   1.591   1.163   3.153
  158DMSO     H 1577   1.729   1.245   3.073
  158DMSO     H 1578   1.690   1.121   2.860
  158DMSO     H 1579   1.550   1.034   2.929
  158DMSO     H 1580   1.536   1.112   2.770
  159DMSO     C 1581   2.165   1.303   2.548
  159DMSO     S 1582   2.301   1.318   2.428
  159DMSO     C 1583   2.201   1.280   2.283
  159DMSO     O 1584   2.403   1.190   2.454
  159DMSO     H 1585   2.205   1.319   2.648
  159DMSO     H 1586   2.089   1.379   2.527
  159DMSO     H 1587   2.120   1.203   2.541
  159DMSO     H 1588   2.153   1.181   2.294
  159DMSO     H 1589   2.124   1.356   2.269
  159DMSO     H 1590   2.266   1.278   2.195
  160DMSO     C 1591   2.313   3.173   0.622
  160DMSO     S 1592   2.446   3.184   0.745
  160DMSO     C 1593   2.338   3.220   0.885
  160DMSO     O 1594   2.532   3.322   0.712
  160DMSO     H 1595   2.357   3.155   0.524
  160DMSO     H 1596   2.247   3.090   0.647
  160DMSO     H 1597   2.256   3.267   0.621
  160DMSO     H 1598   2.278   3.310   0.865
  160DMSO     H 1599   2.271   3.136   0.903
  160DMSO     H 1600   2.399   3.236   0.974
  161DMSO     C 1601   3.595   2.230   2.108
  161DMSO     S 1602   3.501   2.148   1.977
  161DMSO     C 1603   3.581   2.234   1.840
  161DMSO     O 1604   3.345   2.204   1.987
  161DMSO     H 1605   3.559   2.195   2.204
  161DMSO     H 1606   3.701   2.205   2.098
  161DMSO     H 1607   3.583   2.339   2.100
  161DMSO     H 1608   3.570   2.343   1.851
  161DMSO     H 1609   3.687   2.208   1.837
  161DMSO     H 1610   3.534   2.202   1.746
  162DMSO     C 1611   0.111   0.148   2.957
  162DMSO     S 1612  -0.069   0.175   2.959
  162DMSO     C 1613  -0.068   0.295   3.094
  162DMSO     O 1614  -0.137   0.036   3.017
  162DMSO     H 1615   0.134   0.073   2.883
  162DMSO     H 1616   0.161   0.242   2.930
  162DMSO     H 1617   0.145   0.115   3.056
  162DMSO     H 1618  -0.021   0.252   3.184
  162DMSO     H 1619  -0.013   0.384   3.064
  162DMSO     H 1620  -0.171   0.323   3.117
  163DMSO     C 1621   3.604   1.471   2.022
  163DMSO     S 1622   3.440   1.455   1.946
  163DMSO     C 1623   3.456   1.280   1.904
  163DMSO     O 1624   3.444   1.540   1.803
  163DMSO     H 1625   3.619   1.575   2.052
  163DMSO     H 1626   3.610   1.407   2.110
  163DMSO     H 1627   3.682   1.442   1.950
  163DMSO     H 1628   3.544   1.264   1.841
  163DMSO     H 1629   3.466   1.221   1.996
  163DMSO     H 1630   3.366   1.248   1.851
  164DMSO     C 1631   2.005   3.447   2.254
  164DMSO     S 1632   1.894   3.576   2.190
  164DMSO     C 1633   2.016   3.651   2.079
  164DMSO     O 1634   1.867   3.683   2.314
  164DMSO     H 1635   1.951   3.390   2.329
  164DMSO     H 1636   2.035   3.380   2.173
  164DMSO     H 1637   2.094   3.493   2.299
  164DMSO     H 1638   2.105   3.682   2.136
  164DMSO     H 1639   2.046   3.579   2.003
  164DMSO     H 1640   1.971   3.738   2.031
  165DMSO     C 1641   1.636   3.496   3.096
  165DMSO     S 1642   1.619   3.315   3.100
  165DMSO     C 1643   1.493   3.306   2.971
  165DMSO     O 1644   1.546   3.277   3.243
  165DMSO     H 1645   1.707   3.526   3.172
  165DMSO     H 1646   1.673   3.527   2.998
  165DMSO     H 1647   1.539   3.543   3.115
  165DMSO     H 1648   1.406   3.367   2.998
  165DMSO     H 1649   1.534   3.342   2.876
  165DMSO     H 1650   1.463   3.202   2.958
  166DMSO     C 1651   0.135   0.929   3.233
  166DMSO     S 1652   0.267   1.051   3.256
  166DMSO     C 1653   0.182   1.186   3.173
  166DMSO     O 1654   0.393   1.004   3.158
  166DMSO     H 1655   0.167   0.834   3.274
  166DMSO     H 1656   0.045   0.962   3.287
  166DMSO     H 1657   0.112   0.918   3.126
  166DMSO     H 1658   0.155   1.158   3.070
  166DMSO     H 1659   0.092   1.212   3.228
  166DMSO     H 1660   0.248   1.273   3.170
  167DMSO     C 1661   1.699   2.092   2.832
  167DMSO     S 1662   1.541   2.176   2.863
  167DMSO     C 1663   1.542   2.153   3.042
  167DMSO     O 1664   1.422   2.078   2.801
  167DMSO     H 1665   1.718   2.090   2.726
  167DMSO     H 1666   1.780   2.148   2.882
  167DMSO     H 1667   1.696   1.990   2.872
  167DMSO     H 1668   1.550   2.046   3.067
  167DMSO     H 1669   1.627   2.207   3.085
  167DMSO     H 1670   1.450   2.194   3.083
  168DMSO     C 1671   0.865   3.774   0.889
  168DMSO     S 1672   0.941   3.639   0.795
  168DMSO     C 1673   1.041   3.575   0.930
  168DMSO     O 1674   1.044   3.708   0.684
  168DMSO     H 1675   0.801   3.831   0.823
  168DMSO     H 1676   0.805   3.733   0.971
  168DMSO     H 1677   0.944   3.839   0.930
  168DMSO     H 1678   1.107   3.654   0.969
  168DMSO     H 1679   0.977   3.539   1.010
  168DMSO     H 1680   1.102   3.492   0.893
  169DMSO     C 1681   2.834   0.807   3.261
  169DMSO     S 1682   3.012   0.809   3.299
  169DMSO     C 1683   3.065   0.740   3.141
  169DMSO     O 1684   3.038   0.694   3.415
  169DMSO     H 1685   2.779   0.842   3.348
  169DMSO     H 1686   2.814   0.873   3.176
  169DMSO     H 1687   2.803   0.705   3.236
  169DMSO     H 1688   3.017   0.642   3.124
  169DMSO     H 1689   3.039   0.808   3.060
  169DMSO     H 1690   3.174   0.727   3.143
  170DMSO     C 1691   2.772   1.922   1.017
  170DMSO     S 1692   2.595   1.953   0.996
  170DMSO     C 1693   2.571   1.832   0.864
  170DMSO     O 1694   2.579   2.104   0.930
  170DMSO     H 1695   2.811   1.990   1.093
  170DMSO     H 1696   2.788   1.819   1.050
  170DMSO     H 1697   2.824   1.939   0.922
  170DMSO     H 1698   2.637   1.855   0.779
  170DMSO     H 1699   2.592   1.732   0.901
  170DMSO     H 1700   2.467   1.837   0.831
  171DMSO     C 1701   3.000   2.254   2.827
  171DMSO     S 1702   2.942   2.229   2.657
  171DMSO     C 1703   2.925   2.050   2.670
  171DMSO     O 1704   3.072   2.259   2.557
  171DMSO     H 1705   3.022   2.360   2.841
  171DMSO     H 1706   2.921   2.224   2.897
  171DMSO     H 1707   3.090   2.194   2.845
  171DMSO     H 1708   3.021   2.004   2.699
  171DMSO     H 1709   2.849   2.025   2.743
  171DMSO     H 1710   2.894   2.010   2.572
  172DMSO     C 1711   1.725   0.401   0.541
  172DMSO     S 1712   1.764   0.451   0.712
  172DMSO     C 1713   1.689   0.307   0.791
  172DMSO     O 1714   1.668   0.582   0.746
  172DMSO     H 1715   1.758   0.478   0.473
  172DMSO     H 1716   1.777   0.307   0.518
  172DMSO     H 1717   1.616   0.386   0.531
  172DMSO     H 1718   1.583   0.298   0.762
  172DMSO     H 1719   1.742   0.216   0.761
  172DMSO     H 1720   1.697   0.318   0.899
  173DMSO     C 1721   2.795   2.250   1.843
  173DMSO     S 1722   2.620   2.262   1.892
  173DMSO     C 1723   2.643   2.192   2.057
  173DMSO     O 1724   2.538   2.150   1.801
  173DMSO     H 1725   2.805   2.285   1.741
  173DMSO     H 1726   2.855   2.314   1.909
  173DMSO     H 1727   2.829   2.146   1.852
  173DMSO     H 1728   2.688   2.092   2.050
  173DMSO     H 1729   2.707   2.257   2.116
  173DMSO     H 1730   2.545   2.185   2.105
  174DMSO     C 1731   2.054   3.481   3.214
  174DMSO     S 1732   1.882   3.435   3.247
  174DMSO     C 1733   1.905   3.401   3.423
  174DMSO     O 1734   1.855   3.289   3.172
  174DMSO     H 1735   2.065   3.502   3.108
  174DMSO     H 1736   2.079   3.571   3.271
  174DMSO     H 1737   2.121   3.399   3.243
  174DMSO     H 1738   1.983   3.325   3.437
  174DMSO     H 1739   1.935   3.493   3.474
  174DMSO     H 1740   1.811   3.366   3.465
  175DMSO     C 1741   0.175   3.747   3.739
  175DMSO     S 1742   0.224   3.839   3.590
  175DMSO     C 1743   0.170   3.713   3.472
  175DMSO     O 1744   0.390   3.841   3.588
  175DMSO     H 1745   0.203   3.805   3.826
  175DMSO     H 1746   0.066   3.734   3.739
  175DMSO     H 1747   0.224   3.649   3.740
  175DMSO     H 1748   0.219   3.617   3.493
  175DMSO     H 1749   0.062   3.700   3.479
  175DMSO     H 1750   0.195   3.746   3.371
  176DMSO     C 1751   3.050   0.934   1.418
  176DMSO     S 1752   2.916   0.827   1.359
  176DMSO     C 1753   2.784   0.912   1.447
  176DMSO     O 1754   2.936   0.679   1.430
  176DMSO     H 1755   3.144   0.897   1.379
  176DMSO     H 1756   3.034   1.036   1.382
  176DMSO     H 1757   3.052   0.933   1.528
  176DMSO     H 1758   2.805   0.913   1.555
  176DMSO     H 1759   2.775   1.015   1.411
  176DMSO     H 1760   2.690   0.860   1.429
  177DMSO     C 1761   1.122   1.842   2.546
  177DMSO     S 1762   1.054   1.676   2.575
  177DMSO     C 1763   1.212   1.589   2.565
  177DMSO     O 1764   0.967   1.636   2.439
  177DMSO     H 1765   1.041   1.913   2.543
  177DMSO     H 1766   1.190   1.868   2.628
  177DMSO     H 1767   1.177   1.843   2.451
  177DMSO     H 1768   1.260   1.609   2.469
  177DMSO     H 1769   1.277   1.622   2.646
  177DMSO     H 1770   1.194   1.482   2.576
  178DMSO     C 1771   1.558   2.314   0.253
  178DMSO     S 1772   1.557   2.135   0.281
  178DMSO     C 1773   1.527   2.089   0.110
  178DMSO     O 1774   1.420   2.100   0.368
  178DMSO     H 1775   1.571   2.365   0.349
  178DMSO     H 1776   1.640   2.341   0.187
  178DMSO     H 1777   1.463   2.345   0.208
  178DMSO     H 1778   1.434   2.136   0.074
  178DMSO     H 1779   1.610   2.121   0.047
  178DMSO     H 1780   1.518   1.980   0.103
  179DMSO     C 1781   3.656   0.244   1.098
  179DMSO     S 1782   3.710   0.297   1.263
  179DMSO     C 1783   3.557   0.381   1.307
  179DMSO     O 1784   3.827   0.413   1.241
  179DMSO     H 1785   3.738   0.192   1.049
  179DMSO     H 1786   3.571   0.175   1.108
  179DMSO     H 1787   3.627   0.331   1.039
  179DMSO     H 1788   3.534   0.459   1.233
  179DMSO     H 1789   3.475   0.310   1.311
  179DMSO     H 1790   3.569   0.427   1.405
  180DMSO     C 1791   1.171   2.684   3.821
  180DMSO     S 1792   1.201   2.754   3.656
  180DMSO     C 1793   1.032   2.811   3.630
  180DMSO     O 1794   1.227   2.626   3.553
  180DMSO     H 1795   1.263   2.637   3.856
  180DMSO     H 1796   1.142   2.763   3.890
  180DMSO     H 1797   1.091   2.609   3.815
  180DMSO     H 1798   0.961   2.727   3.638
  180DMSO     H 1799   1.007   2.887   3.704
  180DMSO     H 1800   1.025   2.855   3.530
  181DMSO     C 1801   3.750   1.709   0.650
  181DMSO     S 1802   3.747   1.851   0.538
  181DMSO     C 1803   3.865   1.951   0.631
  181DMSO     O 1804   3.598   1.922   0.553
  181DMSO     H 1805   3.680   1.634   0.615
  181DMSO     H 1806   3.850   1.666   0.652
  181DMSO     H 1807   3.722   1.741   0.752
  181DMSO     H 1808   3.829   1.966   0.734
  181DMSO     H 1809   3.962   1.902   0.633
  181DMSO     H 1810   3.876   2.048   0.581
  182DMSO     C 1811   0.509   1.371   2.104
  182DMSO     S 1812   0.374   1.438   2.003
  182DMSO     C 1813   0.326   1.567   2.119
  182DMSO     O 1814   0.253   1.324   2.001
  182DMSO     H 1815   0.552   1.285   2.054
  182DMSO     H 1816   0.586   1.447   2.118
  182DMSO     H 1817   0.470   1.341   2.203
  182DMSO     H 1818   0.300   1.523   2.216
  182DMSO     H 1819   0.408   1.638   2.132
  182DMSO     H 1820   0.239   1.620   2.079
  183DMSO     C 1821   0.625   2.318   1.990
  183DMSO     S 1822   0.538   2.213   1.870
  183DMSO     C 1823   0.386   2.199   1.964
  183DMSO     O 1824   0.613   2.065   1.872
  183DMSO     H 1825   0.725   2.337   1.954
  183DMSO     H 1826   0.572   2.414   2.000
  183DMSO     H 1827   0.628   2.268   2.087
  183DMSO     H 1828   0.406   2.157   2.064
  183DMSO     H 1829   0.339   2.297   1.975
  183DMSO     H 1830   0.317   2.133   1.911
  184DMSO     C 1831   2.808   3.794   0.639
  184DMSO     S 1832   2.711   3.662   0.718
  184DMSO     C 1833   2.603   3.632   0.577
  184DMSO     O 1834   2.619   3.734   0.836
  184DMSO     H 1835   2.880   3.833   0.710
  184DMSO     H 1836   2.861   3.754   0.552
  184DMSO     H 1837   2.741   3.875   0.606
  184DMSO     H 1838   2.550   3.724   0.548
  184DMSO     H 1839   2.661   3.596   0.492
  184DMSO     H 1840   2.530   3.555   0.604
  185DMSO     C 1841   1.695   3.021   3.335
  185DMSO     S 1842   1.712   2.970   3.162
  185DMSO     C 1843   1.568   2.862   3.160
  185DMSO     O 1844   1.847   2.874   3.154
  185DMSO     H 1845   1.778   3.087   3.361
  185DMSO     H 1846   1.601   3.076   3.348
  185DMSO     H 1847   1.695   2.933   3.401
  185DMSO     H 1848   1.577   2.785   3.238
  185DMSO     H 1849   1.478   2.920   3.177
  185DMSO     H 1850   1.561   2.814   3.062
  186DMSO     C 1851   2.350   0.349   1.417
  186DMSO     S 1852   2.502   0.252   1.394
  186DMSO     C 1853   2.453   0.116   1.501
  186DMSO     O 1854   2.623   0.335   1.471
  186DMSO     H 1855   2.359   0.442   1.362
  186DMSO     H 1856   2.265   0.293   1.377
  186DMSO     H 1857   2.334   0.369   1.524
  186DMSO     H 1858   2.430   0.153   1.602
  186DMSO     H 1859   2.365   0.066   1.460
  186DMSO     H 1860   2.535   0.044   1.507
  187DMSO     C 1861   1.906   3.202   1.016
  187DMSO     S 1862   1.928   3.348   1.121
  187DMSO     C 1863   1.967   3.257   1.272
  187DMSO     O 1864   1.779   3.417   1.141
  187DMSO     H 1865   1.876   3.234   0.917
  187DMSO     H 1866   2.000   3.147   1.009
  187DMSO     H 1867   1.828   3.137   1.059
  187DMSO     H 1868   1.886   3.188   1.297
  187DMSO     H 1869   2.060   3.201   1.258
  187DMSO     H 1870   1.981   3.329   1.354
  188DMSO     C 1871   0.295   0.707   2.324
  188DMSO     S 1872   0.356   0.572   2.220
  188DMSO     C 1873   0.498   0.532   2.322
  188DMSO     O 1874   0.413   0.640   2.080
  188DMSO     H 1875   0.208   0.751   2.277
  188DMSO     H 1876   0.267   0.668   2.422
  188DMSO     H 1877   0.374   0.783   2.336
  188DMSO     H 1878   0.563   0.620   2.335
  188DMSO     H 1879   0.465   0.497   2.420
  188DMSO     H 1880   0.555   0.451   2.274
  189DMSO     C 1881   2.478   2.203   0.558
  189DMSO     S 1882   2.402   2.089   0.439
  189DMSO     C 1883   2.293   2.008   0.557
  189DMSO     O 1884   2.519   1.979   0.395
  189DMSO     H 1885   2.554   2.261   0.507
  189DMSO     H 1886   2.401   2.270   0.598
  189DMSO     H 1887   2.524   2.146   0.640
  189DMSO     H 1888   2.352   1.965   0.640
  189DMSO     H 1889   2.222   2.080   0.598
  189DMSO     H 1890   2.238   1.928   0.506
  190DMSO     C 1891   0.193   0.232   3.341
  190DMSO     S 1892   0.037   0.242   3.434
  190DMSO     C 1893   0.086   0.381   3.538
  190DMSO     O 1894   0.029   0.107   3.530
  190DMSO     H 1895   0.187   0.149   3.272
  190DMSO     H 1896   0.208   0.325   3.285
  190DMSO     H 1897   0.276   0.218   3.411
  190DMSO     H 1898   0.177   0.356   3.594
  190DMSO     H 1899   0.104   0.469   3.477
  190DMSO     H 1900   0.005   0.402   3.609
  191DMSO     C 1901   3.801   3.531   0.458
  191DMSO     S 1902   3.647   3.546   0.553
  191DMSO     C 1903   3.658   3.385   0.633
  191DMSO     O 1904   3.522   3.540   0.444
  191DMSO     H 1905   3.813   3.619   0.397
  191DMSO     H 1906   3.885   3.523   0.527
  191DMSO     H 1907   3.797   3.441   0.395
  191DMSO     H 1908   3.664   3.305   0.557
  191DMSO     H 1909   3.746   3.381   0.697
  191DMSO     H 1910   3.569   3.369   0.694
  192DMSO     C 1911   3.151   3.866   3.198
  192DMSO     S 1912   3.183   3.714   3.290
  192DMSO     C 1913   3.165   3.787   3.454
  192DMSO     O 1914   3.343   3.677   3.269
  192DMSO     H 1915   3.161   3.846   3.092
  192DMSO     H 1916   3.049   3.901   3.218
  192DMSO     H 1917   3.222   3.944   3.228
  192DMSO     H 1918   3.235   3.870   3.466
  192DMSO     H 1919   3.063   3.823   3.468
  192DMSO     H 1920   3.186   3.710   3.530
  193DMSO     C 1921   0.116   1.952   2.140
  193DMSO     S 1922   0.180   1.786   2.103
  193DMSO     C 1923   0.179   1.806   1.923
  193DMSO     O 1924   0.059   1.679   2.142
  193DMSO     H 1925   0.104   1.962   2.247
  193DMSO     H 1926   0.188   2.027   2.105
  193DMSO     H 1927   0.020   1.967   2.089
  193DMSO     H 1928   0.078   1.831   1.888
  193DMSO     H 1929   0.249   1.884   1.894
  193DMSO     H 1930   0.211   1.712   1.877
  194DMSO     C 1931   3.151   2.402   3.267
  194DMSO     S 1932   3.157   2.228   3.216
  194DMSO     C 1933   3.295   2.247   3.101
  194DMSO     O 1934   3.021   2.199   3.126
  194DMSO     H 1935   3.068   2.415   3.336
  194DMSO     H 1936   3.244   2.429   3.317
  194DMSO     H 1937   3.137   2.466   3.179
  194DMSO     H 1938   3.271   2.323   3.025
  194DMSO     H 1939   3.385   2.278   3.156
  194DMSO     H 1940   3.315   2.151   3.053
  195DMSO     C 1941   3.089   1.484   0.205
  195DMSO     S 1942   3.031   1.455   0.374
  195DMSO     C 1943   2.866   1.524   0.350
  195DMSO     O 1944   3.115   1.558   0.473
  195DMSO     H 1945   3.192   1.452   0.197
  195DMSO     H 1946   3.028   1.425   0.135
  195DMSO     H 1947   3.080   1.591   0.181
  195DMSO     H 1948   2.873   1.628   0.315
  195DMSO     H 1949   2.811   1.465   0.277
  195DMSO     H 1950   2.812   1.521   0.445
  196DMSO     C 1951   2.933   0.330   1.252
  196DMSO     S 1952   2.961   0.350   1.430
  196DMSO     C 1953   2.857   0.212   1.482
  196DMSO     O 1954   2.884   0.490   1.476
  196DMSO     H 1955   2.985   0.409   1.199
  196DMSO     H 1956   2.972   0.233   1.220
  196DMSO     H 1957   2.825   0.335   1.231
  196DMSO     H 1958   2.755   0.225   1.444
  196DMSO     H 1959   2.898   0.119   1.443
  196DMSO     H 1960   2.855   0.208   1.591
  197DMSO     C 1961   1.364   0.749   3.551
  197DMSO     S 1962   1.344   0.590   3.635
  197DMSO     C 1963   1.179   0.624   3.700
  197DMSO     O 1964   1.449   0.589   3.764
  197DMSO     H 1965   1.463   0.753   3.506
  197DMSO     H 1966   1.289   0.759   3.472
  197DMSO     H 1967   1.353   0.831   3.623
  197DMSO     H 1968   1.181   0.716   3.762
  197DMSO     H 1969   1.109   0.637   3.618
  197DMSO     H 1970   1.147   0.540   3.762
  198DMSO     C 1971   2.475   2.933   0.846
  198DMSO     S 1972   2.619   2.824   0.833
  198DMSO     C 1973   2.742   2.955   0.846
  198DMSO     O 1974   2.623   2.767   0.677
  198DMSO     H 1975   2.385   2.873   0.836
  198DMSO     H 1976   2.475   2.982   0.944
  198DMSO     H 1977   2.478   3.009   0.767
  198DMSO     H 1978   2.727   3.030   0.767
  198DMSO     H 1979   2.735   3.003   0.943
  198DMSO     H 1980   2.842   2.911   0.835
  199DMSO     C 1981   0.280   0.490   1.191
  199DMSO     S 1982   0.382   0.435   1.051
  199DMSO     C 1983   0.260   0.471   0.924
  199DMSO     O 1984   0.395   0.270   1.063
  199DMSO     H 1985   0.335   0.473   1.283
  199DMSO     H 1986   0.259   0.597   1.181
  199DMSO     H 1987   0.185   0.434   1.192
  199DMSO     H 1988   0.166   0.417   0.944
  199DMSO     H 1989   0.239   0.578   0.921
  199DMSO     H 1990   0.299   0.440   0.827
  200DMSO     C 1991   3.514   2.891   1.205
  200DMSO     S 1992   3.484   2.841   1.033
  200DMSO     C 1993   3.639   2.752   1.012
  200DMSO     O 1994   3.492   2.979   0.941
  200DMSO     H 1995   3.432   2.953   1.239
  200DMSO     H 1996   3.521   2.802   1.269
  200DMSO     H 1997   3.608   2.948   1.212
  200DMSO     H 1998   3.724   2.818   1.032
  200DMSO     H 1999   3.642   2.667   1.080
  200DMSO     H 2000   3.645   2.715   0.909
  201DMSO     C 2001   3.848   1.169   2.247
  201DMSO     S 2002   3.719   1.086   2.343
  201DMSO     C 2003   3.618   1.233   2.370
  201DMSO     O 2004   3.786   1.044   2.489
  201DMSO     H 2005   3.925   1.096   2.222
  201DMSO     H 2006   3.805   1.208   2.154
  201DMSO     H 2007   3.891   1.251   2.305
  201DMSO     H 2008   3.678   1.311   2.419
  201DMSO     H 2009   3.582   1.271   2.274
  201DMSO     H 2010   3.533   1.207   2.432
  202DMSO     C 2011   2.263   2.170   2.407
  202DMSO     S 2012   2.267   2.085   2.567
  202DMSO     C 2013   2.256   2.235   2.667
  202DMSO     O 2014   2.419   2.023   2.586
  202DMSO     H 2015   2.274   2.096   2.328
  202DMSO     H 2016   2.168   2.222   2.395
  202DMSO     H 2017   2.346   2.242   2.401
  202DMSO     H 2018   2.339   2.303   2.643
  202DMSO     H 2019   2.161   2.285   2.648
  202DMSO     H 2020   2.261   2.207   2.773
  203DMSO     C 2021   3.317   0.150   2.436
  203DMSO     S 2022   3.465   0.193   2.338
  203DMSO     C 2023   3.379   0.302   2.223
  203DMSO     O 2024   3.508   0.057   2.254
  203DMSO     H 2025   3.345   0.079   2.512
  203DMSO     H 2026   3.278   0.241   2.484
  203DMSO     H 2027   3.241   0.108   2.370
  203DMSO     H 2028   3.298   0.249   2.172
  203DMSO     H 2029   3.339   0.388   2.276
  203DMSO     H 2030   3.451   0.338   2.148
  204DMSO     C 2031   1.388   2.078   2.231
  204DMSO     S 2032   1.238   2.006   2.305
  204DMSO     C 2033   1.275   1.836   2.260
  204DMSO     O 2034   1.110   2.055   2.212
  204DMSO     H 2035   1.384   2.186   2.242
  204DMSO     H 2036   1.476   2.039   2.282
  204DMSO     H 2037   1.392   2.052   2.124
  204DMSO     H 2038   1.288   1.827   2.152
  204DMSO     H 2039   1.367   1.803   2.311
  204DMSO     H 2040   1.193   1.772   2.293
  205DMSO     C 2041   0.973   2.176   3.319
  205DMSO     S 2042   0.940   2.104   3.483
  205DMSO     C 2043   0.964   1.932   3.433
  205DMSO     O 2044   0.778   2.125   3.513
  205DMSO     H 2045   0.960   2.283   3.325
  205DMSO     H 2046   1.076   2.154   3.290
  205DMSO     H 2047   0.904   2.133   3.245
  205DMSO     H 2048   0.896   1.906   3.350
  205DMSO     H 2049   1.067   1.917   3.400
  205DMSO     H 2050   0.944   1.867   3.518
  206DMSO     C 2051   0.217   0.484   3.719
  206DMSO     S 2052   0.134   0.328   3.761
  206DMSO     C 2053   0.037   0.394   3.898
  206DMSO     O 2054   0.250   0.227   3.825
  206DMSO     H 2055   0.287   0.466   3.638
  206DMSO     H 2056   0.142   0.557   3.687
  206DMSO     H 2057   0.270   0.522   3.808
  206DMSO     H 2058   0.103   0.439   3.973
  206DMSO     H 2059  -0.032   0.469   3.861
  206DMSO     H 2060  -0.020   0.312   3.943
  207DMSO     C 2061   3.225   1.896   0.397
  207DMSO     S 2062   3.165   2.046   0.480
  207DMSO     C 2063   3.225   2.162   0.356
  207DMSO     O 2064   3.258   2.065   0.616
  207DMSO     H 2065   3.203   1.810   0.458
  207DMSO     H 2066   3.174   1.886   0.300
  207DMSO     H 2067   3.334   1.904   0.380
  207DMSO     H 2068   3.334   2.151   0.343
  207DMSO     H 2069   3.175   2.145   0.261
  207DMSO     H 2070   3.204   2.264   0.390
  208DMSO     C 2071   3.301   0.572   2.029
  208DMSO     S 2072   3.129   0.571   1.970
  208DMSO     C 2073   3.145   0.420   1.872
  208DMSO     O 2074   3.113   0.697   1.864
  208DMSO     H 2075   3.316   0.661   2.089
  208DMSO     H 2076   3.319   0.483   2.090
  208DMSO     H 2077   3.370   0.572   1.943
  208DMSO     H 2078   3.225   0.431   1.797
  208DMSO     H 2079   3.167   0.335   1.937
  208DMSO     H 2080   3.050   0.401   1.821
  209DMSO     C 2081   2.320   1.962   1.176
  209DMSO     S 2082   2.279   1.852   1.315
  209DMSO     C 2083   2.105   1.899   1.325
  209DMSO     O 2084   2.355   1.913   1.449
  209DMSO     H 2085   2.426   1.953   1.155
  209DMSO     H 2086   2.263   1.932   1.088
  209DMSO     H 2087   2.296   2.066   1.203
  209DMSO     H 2088   2.096   2.008   1.340
  209DMSO     H 2089   2.054   1.871   1.233
  209DMSO     H 2090   2.059   1.846   1.408
  210DMSO     C 2091   0.494   1.668   0.817
  210DMSO     S 2092   0.628   1.628   0.701
  210DMSO     C 2093   0.524   1.616   0.555
  210DMSO     O 2094   0.680   1.475   0.739
  210DMSO     H 2095   0.535   1.676   0.917
  210DMSO     H 2096   0.450   1.764   0.789
  210DMSO     H 2097   0.418   1.590   0.814
  210DMSO     H 2098   0.445   1.542   0.570
  210DMSO     H 2099   0.479   1.713   0.534
  210DMSO     H 2100   0.586   1.587   0.470
  211DMSO     C 2101   2.864   3.627   1.892
  211DMSO     S 2102   2.918   3.493   2.003
  211DMSO     C 2103   2.969   3.600   2.138
  211DMSO     O 2104   3.055   3.427   1.936
  211DMSO     H 2105   2.832   3.584   1.798
  211DMSO     H 2106   2.780   3.680   1.938
  211DMSO     H 2107   2.947   3.696   1.875
  211DMSO     H 2108   3.045   3.672   2.103
  211DMSO     H 2109   2.883   3.655   2.177
  211DMSO     H 2110   3.011   3.539   2.218
  212DMSO     C 2111   2.274   3.068   2.274
  212DMSO     S 2112   2.251   3.205   2.391
  212DMSO     C 2113   2.071   3.202   2.388
  212DMSO     O 2114   2.300   3.343   2.314
  212DMSO     H 2115   2.380   3.054   2.256
  212DMSO     H 2116   2.232   2.976   2.316
  212DMSO     H 2117   2.223   3.091   2.179
  212DMSO     H 2118   2.034   3.216   2.285
  212DMSO     H 2119   2.034   3.107   2.427
  212DMSO     H 2120   2.033   3.283   2.451
  213DMSO     C 2121   3.687   2.987  -0.115
  213DMSO     S 2122   3.580   2.952   0.027
  213DMSO     C 2123   3.696   3.010   0.153
  213DMSO     O 2124   3.570   2.787   0.041
  213DMSO     H 2125   3.637   2.955  -0.205
  213DMSO     H 2126   3.706   3.095  -0.121
  213DMSO     H 2127   3.782   2.934  -0.103
  213DMSO     H 2128   3.791   2.956   0.145
  213DMSO     H 2129   3.714   3.117   0.140
  213DMSO     H 2130   3.652   2.994   0.252
  214DMSO     C 2131   2.508   1.626   1.524
  214DMSO     S 2132   2.566   1.519   1.659
  214DMSO     C 2133   2.408   1.438   1.689
  214DMSO     O 2134   2.598   1.617   1.789
  214DMSO     H 2135   2.589   1.690   1.492
  214DMSO     H 2136   2.475   1.564   1.440
  214DMSO     H 2137   2.424   1.687   1.560
  214DMSO     H 2138   2.331   1.513   1.712
  214DMSO     H 2139   2.378   1.382   1.600
  214DMSO     H 2140   2.419   1.369   1.773
  215DMSO     C 2141   1.120   3.025   0.841
  215DMSO     S 2142   1.154   3.114   0.996
  215DMSO     C 2143   1.100   3.275   0.937
  215DMSO     O 2144   1.319   3.119   1.013
  215DMSO     H 2145   1.150   2.922   0.852
  215DMSO     H 2146   1.013   3.029   0.819
  215DMSO     H 2147   1.176   3.072   0.759
  215DMSO     H 2148   1.157   3.304   0.847
  215DMSO     H 2149   0.994   3.273   0.913
  215DMSO     H 2150   1.117   3.349   1.016
  216DMSO     C 2151   1.038   1.501   3.525
  216DMSO     S 2152   0.963   1.659   3.477
  216DMSO     C 2153   0.797   1.619   3.532
  216DMSO     O 2154   0.961   1.663   3.311
  216DMSO     H 2155   1.142   1.501   3.495
  216DMSO     H 2156   1.031   1.489   3.633
  216DMSO     H 2157   0.984   1.418   3.475
  216DMSO     H 2158   0.760   1.528   3.483
  216DMSO     H 2159   0.796   1.604   3.640
  216DMSO     H 2160   0.730   1.703   3.508
  217DMSO     C 2161   3.481   2.995   2.150
  217DMSO     S 2162   3.321   3.056   2.090
  217DMSO     C 2163   3.336   3.221   2.162
  217DMSO     O 2164   3.204   2.975   2.175
  217DMSO     H 2165   3.492   2.891   2.121
  217DMSO     H 2166   3.562   3.053   2.105
  217DMSO     H 2167   3.486   3.004   2.260
  217DMSO     H 2168   3.352   3.214   2.271
  217DMSO     H 2169   3.421   3.273   2.117
  217DMSO     H 2170   3.245   3.277   2.142
  218DMSO     C 2171   2.976   2.683   3.377
  218DMSO     S 2172   2.929   2.578   3.237
  218DMSO     C 2173   3.062   2.632   3.127
  218DMSO     O 2174   2.787   2.639   3.176
  218DMSO     H 2175   2.904   2.670   3.457
  218DMSO     H 2176   3.075   2.654   3.413
  218DMSO     H 2177   2.978   2.789   3.345
  218DMSO     H 2178   3.058   2.741   3.113
  218DMSO     H 2179   3.158   2.604   3.170
  218DMSO     H 2180   3.050   2.582   3.030
  219DMSO     C 2181   0.121   0.725   3.853
  219DMSO     S 2182   0.052   0.874   3.775
  219DMSO     C 2183   0.063   0.814   3.606
  219DMSO     O 2184   0.165   0.994   3.794
  219DMSO     H 2185   0.128   0.741   3.960
  219DMSO     H 2186   0.055   0.640   3.833
  219DMSO     H 2187   0.220   0.704   3.812
  219DMSO     H 2188   0.167   0.787   3.582
  219DMSO     H 2189  -0.001   0.727   3.593
  219DMSO     H 2190   0.030   0.893   3.538
  220DMSO     C 2191   1.091   0.452   2.625
  220DMSO     S 2192   0.947   0.475   2.734
  220DMSO     C 2193   1.040   0.477   2.888
  220DMSO     O 2194   0.860   0.334   2.729
  220DMSO     H 2195   1.057   0.443   2.523
  220DMSO     H 2196   1.157   0.538   2.634
  220DMSO     H 2197   1.145   0.361   2.654
  220DMSO     H 2198   1.098   0.384   2.898
  220DMSO     H 2199   1.108   0.562   2.889
  220DMSO     H 2200   0.970   0.486   2.971
  221DMSO     C 2201   0.681   1.291   2.991
  221DMSO     S 2202   0.764   1.255   2.834
  221DMSO     C 2203   0.614   1.226   2.739
  221DMSO     O 2204   0.840   1.108   2.852
  221DMSO     H 2205   0.756   1.308   3.067
  221DMSO     H 2206   0.620   1.382   2.980
  221DMSO     H 2207   0.617   1.207   3.019
  221DMSO     H 2208   0.554   1.146   2.786
  221DMSO     H 2209   0.555   1.318   2.735
  221DMSO     H 2210   0.641   1.196   2.637
  222DMSO     C 2211   2.709   1.512   3.001
  222DMSO     S 2212   2.791   1.351   2.982
  222DMSO     C 2213   2.782   1.306   3.157
  222DMSO     O 2214   2.950   1.383   2.947
  222DMSO     H 2215   2.707   1.562   2.904
  222DMSO     H 2216   2.606   1.497   3.035
  222DMSO     H 2217   2.763   1.574   3.073
  222DMSO     H 2218   2.831   1.383   3.219
  222DMSO     H 2219   2.678   1.296   3.187
  222DMSO     H 2220   2.832   1.210   3.171
  223DMSO     C 2221   0.917   0.140   0.600
  223DMSO     S 2222   0.971   0.046   0.454
  223DMSO     C 2223   0.889   0.150   0.333
  223DMSO     O 2224   0.891  -0.099   0.458
  223DMSO     H 2225   0.953   0.091   0.689
  223DMSO     H 2226   0.959   0.241   0.595
  223DMSO     H 2227   0.807   0.146   0.601
  223DMSO     H 2228   0.781   0.155   0.353
  223DMSO     H 2229   0.931   0.251   0.335
  223DMSO     H 2230   0.905   0.108   0.233
  224DMSO     C 2231   1.649   1.598   1.470
  224DMSO     S 2232   1.524   1.594   1.338
  224DMSO     C 2233   1.639   1.616   1.202
  224DMSO     O 2234   1.435   1.734   1.352
  224DMSO     H 2235   1.600   1.591   1.566
  224DMSO     H 2236   1.717   1.513   1.457
  224DMSO     H 2237   1.706   1.692   1.464
  224DMSO     H 2238   1.697   1.709   1.215
  224DMSO     H 2239   1.707   1.531   1.197
  224DMSO     H 2240   1.583   1.622   1.108
  225DMSO     C 2241   2.267   3.751   3.246
  225DMSO     S 2242   2.354   3.603   3.306
  225DMSO     C 2243   2.270   3.596   3.465
  225DMSO     O 2244   2.511   3.648   3.334
  225DMSO     H 2245   2.307   3.778   3.148
  225DMSO     H 2246   2.160   3.729   3.236
  225DMSO     H 2247   2.282   3.834   3.316
  225DMSO     H 2248   2.284   3.690   3.520
  225DMSO     H 2249   2.163   3.579   3.450
  225DMSO     H 2250   2.312   3.513   3.523
  226DMSO     C 2251   0.970   2.211   2.803
  226DMSO     S 2252   1.066   2.083   2.889
  226DMSO     C 2253   1.117   1.995   2.740
  226DMSO     O 2254   0.957   1.987   2.969
  226DMSO     H 2255   0.924   2.276   2.877
  226DMSO     H 2256   1.037   2.270   2.740
  226DMSO     H 2257   0.893   2.164   2.741
  226DMSO     H 2258   1.030   1.964   2.682
  226DMSO     H 2259   1.180   2.060   2.679
  226DMSO     H 2260   1.175   1.907   2.770
  227DMSO     C 2261   2.806   1.320   1.123
  227DMSO     S 2262   2.869   1.255   0.966
  227DMSO     C 2263   3.036   1.221   1.026
  227DMSO     O 2264   2.879   1.383   0.861
  227DMSO     H 2265   2.703   1.352   1.108
  227DMSO     H 2266   2.808   1.241   1.198
  227DMSO     H 2267   2.867   1.405   1.156
  227DMSO     H 2268   3.081   1.313   1.066
  227DMSO     H 2269   3.032   1.145   1.104
  227DMSO     H 2270   3.097   1.184   0.943
  228DMSO     C 2271   3.857   2.027   2.712
  228DMSO     S 2272   3.883   1.989   2.537
  228DMSO     C 2273   3.710   1.995   2.489
  228DMSO     O 2274   3.932   1.830   2.529
  228DMSO     H 2275   3.952   2.024   2.764
  228DMSO     H 2276   3.814   2.127   2.721
  228DMSO     H 2277   3.788   1.953   2.756
  228DMSO     H 2278   3.651   1.923   2.549
  228DMSO     H 2279   3.671   2.095   2.505
  228DMSO     H 2280   3.701   1.969   2.384
  229DMSO     C 2281   2.542   1.001   3.725
  229DMSO     S 2282   2.489   1.157   3.648
  229DMSO     C 2283   2.652   1.234   3.649
  229DMSO     O 2284   2.396   1.237   3.760
  229DMSO     H 2285   2.455   0.938   3.739
  229DMSO     H 2286   2.614   0.951   3.659
  229DMSO     H 2287   2.590   1.022   3.822
  229DMSO     H 2288   2.692   1.238   3.751
  229DMSO     H 2289   2.720   1.178   3.585
  229DMSO     H 2290   2.643   1.336   3.609
  230DMSO     C 2291   0.187   0.608   1.662
  230DMSO     S 2292   0.315   0.673   1.773
  230DMSO     C 2293   0.205   0.703   1.912
  230DMSO     O 2294   0.360   0.821   1.712
  230DMSO     H 2295   0.232   0.586   1.565
  230DMSO     H 2296   0.146   0.515   1.704
  230DMSO     H 2297   0.107   0.682   1.650
  230DMSO     H 2298   0.123   0.770   1.883
  230DMSO     H 2299   0.164   0.608   1.948
  230DMSO     H 2300   0.263   0.749   1.993
  231DMSO     C 2301   1.739   0.215   1.192
  231DMSO     S 2302   1.676   0.091   1.309
  231DMSO     C 2303   1.751   0.165   1.455
  231DMSO     O 2304   1.756  -0.050   1.277
  231DMSO     H 2305   1.709   0.187   1.091
  231DMSO     H 2306   1.698   0.313   1.216
  231DMSO     H 2307   1.849   0.219   1.198
  231DMSO     H 2308   1.860   0.173   1.443
  231DMSO     H 2309   1.709   0.264   1.473
  231DMSO     H 2310   1.729   0.101   1.542
  232DMSO     C 2311   0.599   1.915   0.156
  232DMSO     S 2312   0.492   1.955   0.297
  232DMSO     C 2313   0.601   1.884   0.422
  232DMSO     O 2314   0.359   1.857   0.286
  232DMSO     H 2315   0.549   1.947   0.064
  232DMSO     H 2316   0.693   1.969   0.165
  232DMSO     H 2317   0.618   1.807   0.153
  232DMSO     H 2318   0.620   1.778   0.401
  232DMSO     H 2319   0.695   1.938   0.425
  232DMSO     H 2320   0.553   1.893   0.520
  233DMSO     C 2321   2.142   1.323   3.564
  233DMSO     S 2322   2.064   1.359   3.404
  233DMSO     C 2323   1.899   1.302   3.450
  233DMSO     O 2324   2.126   1.251   3.295
  233DMSO     H 2325   2.247   1.348   3.558
  233DMSO     H 2326   2.095   1.385   3.642
  233DMSO     H 2327   2.129   1.217   3.589
  233DMSO     H 2328   1.903   1.197   3.483
  233DMSO     H 2329   1.859   1.363   3.531
  233DMSO     H 2330   1.833   1.310   3.363
  234DMSO     C 2331   0.207   2.738   1.205
  234DMSO     S 2332   0.057   2.688   1.293
  234DMSO     C 2333   0.074   2.807   1.428
  234DMSO     O 2334   0.086   2.537   1.356
  234DMSO     H 2335   0.221   2.674   1.118
  234DMSO     H 2336   0.197   2.842   1.172
  234DMSO     H 2337   0.294   2.730   1.272
  234DMSO     H 2338   0.170   2.793   1.479
  234DMSO     H 2339   0.067   2.908   1.389
  234DMSO     H 2340  -0.008   2.791   1.499
  235DMSO     C 2341   3.440   1.614   0.023
  235DMSO     S 2342   3.608   1.589   0.087
  235DMSO     C 2343   3.558   1.494   0.232
  235DMSO     O 2344   3.662   1.737   0.141
  235DMSO     H 2345   3.446   1.676  -0.067
  235DMSO     H 2346   3.397   1.517  -0.003
  235DMSO     H 2347   3.378   1.663   0.099
  235DMSO     H 2348   3.488   1.552   0.293
  235DMSO     H 2349   3.512   1.401   0.201
  235DMSO     H 2350   3.647   1.471   0.292
  236DMSO     C 2351   0.865   2.504   0.975
  236DMSO     S 2352   0.758   2.577   1.103
  236DMSO     C 2353   0.848   2.508   1.243
  236DMSO     O 2354   0.612   2.499   1.095
  236DMSO     H 2355   0.825   2.530   0.878
  236DMSO     H 2356   0.966   2.545   0.985
  236DMSO     H 2357   0.867   2.395   0.987
  236DMSO     H 2358   0.853   2.399   1.236
  236DMSO     H 2359   0.950   2.548   1.246
  236DMSO     H 2360   0.797   2.537   1.336
  237DMSO     C 2361   3.329   1.479   0.938
  237DMSO     S 2362   3.344   1.658   0.961
  237DMSO     C 2363   3.179   1.699   0.900
  237DMSO     O 2364   3.453   1.712   0.848
  237DMSO     H 2365   3.423   1.432   0.966
  237DMSO     H 2366   3.249   1.440   1.003
  237DMSO     H 2367   3.305   1.456   0.833
  237DMSO     H 2368   3.166   1.660   0.798
  237DMSO     H 2369   3.104   1.655   0.966
  237DMSO     H 2370   3.167   1.807   0.900
  238DMSO     C 2371   3.367   3.865   0.667
  238DMSO     S 2372   3.443   3.770   0.801
  238DMSO     C 2373   3.294   3.755   0.901
  238DMSO     O 2374   3.545   3.874   0.881
  238DMSO     H 2375   3.443   3.891   0.594
  238DMSO     H 2376   3.290   3.804   0.618
  238DMSO     H 2377   3.321   3.956   0.707
  238DMSO     H 2378   3.253   3.854   0.924
  238DMSO     H 2379   3.219   3.697   0.846
  238DMSO     H 2380   3.318   3.702   0.994
  239DMSO     C 2381   0.069  -0.007   1.932
  239DMSO     S 2382   0.082   0.162   1.998
  239DMSO     C 2383   0.215   0.215   1.888
  239DMSO     O 2384   0.146   0.149   2.151
  239DMSO     H 2385  -0.005  -0.061   1.990
  239DMSO     H 2386   0.038  -0.002   1.828
  239DMSO     H 2387   0.166  -0.057   1.940
  239DMSO     H 2388   0.302   0.149   1.898
  239DMSO     H 2389   0.180   0.213   1.785
  239DMSO     H 2390   0.244   0.317   1.914
  240DMSO     C 2391   1.194   0.431   1.289
  240DMSO     S 2392   1.088   0.300   1.355
  240DMSO     C 2393   1.121   0.334   1.529
  240DMSO     O 2394   1.160   0.155   1.318
  240DMSO     H 2395   1.193   0.427   1.181
  240DMSO     H 2396   1.156   0.529   1.322
  240DMSO     H 2397   1.297   0.418   1.326
  240DMSO     H 2398   1.229   0.328   1.549
  240DMSO     H 2399   1.085   0.434   1.555
  240DMSO     H 2400   1.068   0.260   1.590
  241DMSO     C 2401   2.215   3.604   0.825
  241DMSO     S 2402   2.177   3.710   0.683
  241DMSO     C 2403   2.186   3.580   0.559
  241DMSO     O 2404   2.308   3.810   0.661
  241DMSO     H 2405   2.220   3.665   0.915
  241DMSO     H 2406   2.137   3.529   0.836
  241DMSO     H 2407   2.312   3.554   0.809
  241DMSO     H 2408   2.285   3.531   0.562
  241DMSO     H 2409   2.109   3.506   0.577
  241DMSO     H 2410   2.170   3.624   0.460
  242DMSO     C 2411   0.863   3.928   3.008
  242DMSO     S 2412   0.755   3.789   2.966
  242DMSO     C 2413   0.772   3.704   3.124
  242DMSO     O 2414   0.835   3.698   2.851
  242DMSO     H 2415   0.871   3.994   2.921
  242DMSO     H 2416   0.819   3.984   3.091
  242DMSO     H 2417   0.962   3.891   3.037
  242DMSO     H 2418   0.878   3.683   3.145
  242DMSO     H 2419   0.731   3.765   3.204
  242DMSO     H 2420   0.716   3.610   3.120
  243DMSO     C 2421   1.710   3.274   3.719
  243DMSO     S 2422   1.721   3.192   3.880
  243DMSO     C 2423   1.884   3.257   3.923
  243DMSO     O 2424   1.739   3.029   3.850
  243DMSO     H 2425   1.617   3.245   3.670
  243DMSO     H 2426   1.710   3.383   3.733
  243DMSO     H 2427   1.796   3.246   3.656
  243DMSO     H 2428   1.957   3.230   3.846
  243DMSO     H 2429   1.879   3.365   3.932
  243DMSO     H 2430   1.915   3.215   4.019
  244DMSO     C 2431   0.759   0.272   0.947
  244DMSO     S 2432   0.826   0.129   1.036
  244DMSO     C 2433   0.719   0.145   1.180
  244DMSO     O 2434   0.980   0.170   1.083
  244DMSO     H 2435   0.814   0.285   0.854
  244DMSO     H 2436   0.653   0.255   0.924
  244DMSO     H 2437   0.768   0.363   1.009
  244DMSO     H 2438   0.731   0.245   1.226
  244DMSO     H 2439   0.615   0.131   1.151
  244DMSO     H 2440   0.746   0.068   1.253
  245DMSO     C 2441   2.911   2.164   3.666
  245DMSO     S 2442   2.896   2.294   3.540
  245DMSO     C 2443   2.897   2.182   3.399
  245DMSO     O 2444   3.039   2.377   3.540
  245DMSO     H 2445   2.917   2.211   3.764
  245DMSO     H 2446   2.823   2.099   3.663
  245DMSO     H 2447   3.001   2.104   3.648
  245DMSO     H 2448   2.989   2.121   3.399
  245DMSO     H 2449   2.810   2.117   3.402
  245DMSO     H 2450   2.894   2.241   3.307
  246DMSO     C 2451   1.113   0.863   1.335
  246DMSO     S 2452   1.027   0.760   1.456
  246DMSO     C 2453   1.175   0.681   1.522
  246DMSO     O 2454   0.943   0.645   1.371
  246DMSO     H 2455   1.040   0.919   1.278
  246DMSO     H 2456   1.179   0.933   1.387
  246DMSO     H 2457   1.173   0.800   1.268
  246DMSO     H 2458   1.231   0.630   1.441
  246DMSO     H 2459   1.239   0.755   1.569
  246DMSO     H 2460   1.146   0.607   1.597
  247DMSO     C 2461   3.620   3.378   1.685
  247DMSO     S 2462   3.591   3.501   1.554
  247DMSO     C 2463   3.634   3.392   1.417
  247DMSO     O 2464   3.712   3.614   1.567
  247DMSO     H 2465   3.603   3.425   1.781
  247DMSO     H 2466   3.549   3.295   1.673
  247DMSO     H 2467   3.723   3.340   1.678
  247DMSO     H 2468   3.736   3.353   1.429
  247DMSO     H 2469   3.564   3.309   1.412
  247DMSO     H 2470   3.628   3.449   1.323
  248DMSO     C 2471   2.582   0.340   0.745
  248DMSO     S 2472   2.548   0.162   0.735
  248DMSO     C 2473   2.393   0.168   0.827
  248DMSO     O 2474   2.660   0.086   0.831
  248DMSO     H 2475   2.678   0.360   0.698
  248DMSO     H 2476   2.504   0.396   0.692
  248DMSO     H 2477   2.585   0.372   0.850
  248DMSO     H 2478   2.409   0.212   0.926
  248DMSO     H 2479   2.320   0.228   0.772
  248DMSO     H 2480   2.354   0.066   0.837
  249DMSO     C 2481   1.273   2.231   0.808
  249DMSO     S 2482   1.140   2.163   0.911
  249DMSO     C 2483   1.243   2.131   1.056
  249DMSO     O 2484   1.099   2.016   0.846
  249DMSO     H 2485   1.233   2.254   0.710
  249DMSO     H 2486   1.312   2.322   0.854
  249DMSO     H 2487   1.355   2.157   0.799
  249DMSO     H 2488   1.327   2.064   1.029
  249DMSO     H 2489   1.282   2.224   1.095
  249DMSO     H 2490   1.182   2.083   1.133
  250DMSO     C 2491   3.115   2.955   3.147
  250DMSO     S 2492   2.992   2.926   3.017
  250DMSO     C 2493   3.102   2.831   2.909
  250DMSO     O 2494   2.965   3.072   2.943
  250DMSO     H 2495   3.070   3.017   3.224
  250DMSO     H 2496   3.145   2.860   3.191
  250DMSO     H 2497   3.203   3.005   3.105
  250DMSO     H 2498   3.191   2.890   2.884
  250DMSO     H 2499   3.132   2.739   2.959
  250DMSO     H 2500   3.048   2.805   2.818
  251DMSO     C 2501   3.855   2.491   1.649
  251DMSO     S 2502   3.802   2.607   1.778
  251DMSO     C 2503   3.626   2.573   1.762
  251DMSO     O 2504   3.829   2.760   1.718
  251DMSO     H 2505   3.963   2.498   1.637
  251DMSO     H 2506   3.829   2.389   1.679
  251DMSO     H 2507   3.805   2.515   1.554
  251DMSO     H 2508   3.592   2.591   1.659
  251DMSO     H 2509   3.606   2.469   1.789
  251DMSO     H 2510   3.571   2.638   1.831
  252DMSO     C 2511   3.448   2.399   0.351
  252DMSO     S 2512   3.390   2.280   0.476
  252DMSO     C 2513   3.449   2.373   0.618
  252DMSO     O 2514   3.485   2.145   0.461
  252DMSO     H 2515   3.426   2.359   0.252
  252DMSO     H 2516   3.395   2.494   0.364
  252DMSO     H 2517   3.556   2.415   0.362
  252DMSO     H 2518   3.557   2.391   0.610
  252DMSO     H 2519   3.396   2.468   0.625
  252DMSO     H 2520   3.428   2.315   0.709
  253DMSO     C 2521   1.569   2.692   1.788
  253DMSO     S 2522   1.579   2.541   1.687
  253DMSO     C 2523   1.684   2.449   1.801
  253DMSO     O 2524   1.670   2.578   1.553
  253DMSO     H 2525   1.511   2.766   1.734
  253DMSO     H 2526   1.519   2.669   1.882
  253DMSO     H 2527   1.670   2.730   1.808
  253DMSO     H 2528   1.777   2.504   1.820
  253DMSO     H 2529   1.631   2.433   1.895
  253DMSO     H 2530   1.707   2.352   1.756
  254DMSO     C 2531   2.626   3.360   2.348
  254DMSO     S 2532   2.803   3.360   2.307
  254DMSO     C 2533   2.780   3.340   2.129
  254DMSO     O 2534   2.865   3.218   2.365
  254DMSO     H 2535   2.614   3.367   2.455
  254DMSO     H 2536   2.578   3.447   2.301
  254DMSO     H 2537   2.579   3.268   2.311
  254DMSO     H 2538   2.722   3.249   2.107
  254DMSO     H 2539   2.728   3.427   2.088
  254DMSO     H 2540   2.879   3.332   2.082
  255DMSO     C 2541   1.718   3.292   0.814
  255DMSO     S 2542   1.605   3.270   0.674
  255DMSO     C 2543   1.465   3.213   0.772
  255DMSO     O 2544   1.661   3.141   0.586
  255DMSO     H 2545   1.815   3.323   0.776
  255DMSO     H 2546   1.679   3.369   0.881
  255DMSO     H 2547   1.728   3.197   0.869
  255DMSO     H 2548   1.493   3.124   0.830
  255DMSO     H 2549   1.433   3.292   0.840
  255DMSO     H 2550   1.382   3.189   0.705
  256DMSO     C 2551   1.254   0.226   0.611
  256DMSO     S 2552   1.303   0.064   0.545
  256DMSO     C 2553   1.230   0.087   0.382
  256DMSO     O 2554   1.212  -0.050   0.625
  256DMSO     H 2555   1.285   0.232   0.715
  256DMSO     H 2556   1.303   0.305   0.553
  256DMSO     H 2557   1.145   0.237   0.603
  256DMSO     H 2558   1.123   0.108   0.391
  256DMSO     H 2559   1.280   0.169   0.331
  256DMSO     H 2560   1.245  -0.005   0.324
  257DMSO     C 2561   3.295   0.227   0.034
  257DMSO     S 2562   3.243   0.078   0.125
  257DMSO     C 2563   3.124   0.162   0.231
  257DMSO     O 2564   3.371   0.032   0.220
  257DMSO     H 2565   3.373   0.200  -0.036
  257DMSO     H 2566   3.210   0.268  -0.021
  257DMSO     H 2567   3.332   0.302   0.105
  257DMSO     H 2568   3.173   0.242   0.288
  257DMSO     H 2569   3.044   0.205   0.171
  257DMSO     H 2570   3.081   0.089   0.301
  258DMSO     C 2571   3.737   2.664   3.388
  258DMSO     S 2572   3.760   2.741   3.226
  258DMSO     C 2573   3.940   2.749   3.234
  258DMSO     O 2574   3.703   2.896   3.238
  258DMSO     H 2575   3.630   2.653   3.407
  258DMSO     H 2576   3.783   2.565   3.388
  258DMSO     H 2577   3.783   2.726   3.466
  258DMSO     H 2578   3.972   2.805   3.323
  258DMSO     H 2579   3.981   2.648   3.239
  258DMSO     H 2580   3.978   2.798   3.144
  259DMSO     C 2581   3.214   2.025   2.576
  259DMSO     S 2582   3.355   2.075   2.678
  259DMSO     C 2583   3.462   1.938   2.629
  259DMSO     O 2584   3.312   2.050   2.836
  259DMSO     H 2585   3.132   2.094   2.593
  259DMSO     H 2586   3.242   2.028   2.470
  259DMSO     H 2587   3.183   1.922   2.602
  259DMSO     H 2588   3.414   1.842   2.651
  259DMSO     H 2589   3.484   1.944   2.523
  259DMSO     H 2590   3.556   1.945   2.685
  260DMSO     C 2591   3.580   1.579   2.519
  260DMSO     S 2592   3.603   1.620   2.343
  260DMSO     C 2593   3.702   1.768   2.372
  260DMSO     O 2594   3.455   1.669   2.286
  260DMSO     H 2595   3.517   1.492   2.527
  260DMSO     H 2596   3.678   1.557   2.564
  260DMSO     H 2597   3.534   1.664   2.571
  260DMSO     H 2598   3.647   1.840   2.435
  260DMSO     H 2599   3.796   1.742   2.420
  260DMSO     H 2600   3.725   1.815   2.275
  261DMSO     C 2601   1.149   0.375   3.283
  261DMSO     S 2602   1.133   0.343   3.461
  261DMSO     C 2603   1.287   0.423   3.509
  261DMSO     O 2604   1.153   0.179   3.482
  261DMSO     H 2605   1.066   0.330   3.231
  261DMSO     H 2606   1.148   0.483   3.266
  261DMSO     H 2607   1.244   0.333   3.246
  261DMSO     H 2608   1.372   0.378   3.456
  261DMSO     H 2609   1.282   0.530   3.485
  261DMSO     H 2610   1.301   0.412   3.617
  262DMSO     C 2611   3.407   0.893   3.496
  262DMSO     S 2612   3.414   0.732   3.579
  262DMSO     C 2613   3.303   0.775   3.714
  262DMSO     O 2614   3.566   0.717   3.643
  262DMSO     H 2615   3.473   0.891   3.410
  262DMSO     H 2616   3.305   0.912   3.462
  262DMSO     H 2617   3.438   0.972   3.566
  262DMSO     H 2618   3.341   0.863   3.768
  262DMSO     H 2619   3.203   0.798   3.675
  262DMSO     H 2620   3.295   0.690   3.783
  263DMSO     C 2621   3.212   1.438   1.677
  263DMSO     S 2622   3.214   1.321   1.538
  263DMSO     C 2623   3.232   1.173   1.640
  263DMSO     O 2624   3.356   1.344   1.457
  263DMSO     H 2625   3.206   1.539   1.637
  263DMSO     H 2626   3.125   1.419   1.740
  263DMSO     H 2627   3.304   1.427   1.736
  263DMSO     H 2628   3.323   1.180   1.702
  263DMSO     H 2629   3.145   1.161   1.704
  263DMSO     H 2630   3.240   1.086   1.574
  264DMSO     C 2631   1.640   0.899   2.190
  264DMSO     S 2632   1.786   0.962   2.276
  264DMSO     C 2633   1.726   1.131   2.294
  264DMSO     O 2634   1.910   0.965   2.166
  264DMSO     H 2635   1.656   0.795   2.164
  264DMSO     H 2636   1.553   0.906   2.256
  264DMSO     H 2637   1.622   0.958   2.099
  264DMSO     H 2638   1.701   1.174   2.196
  264DMSO     H 2639   1.637   1.132   2.357
  264DMSO     H 2640   1.803   1.192   2.342
  265DMSO     C 2641   3.541   0.860   1.278
  265DMSO     S 2642   3.515   1.024   1.204
  265DMSO     C 2643   3.464   0.963   1.043
  265DMSO     O 2644   3.665   1.093   1.187
  265DMSO     H 2645   3.578   0.872   1.379
  265DMSO     H 2646   3.446   0.806   1.281
  265DMSO     H 2647   3.614   0.803   1.218
  265DMSO     H 2648   3.542   0.899   0.999
  265DMSO     H 2649   3.372   0.906   1.052
  265DMSO     H 2650   3.447   1.049   0.977
  266DMSO     C 2651   1.716   1.701   3.005
  266DMSO     S 2652   1.618   1.688   3.158
  266DMSO     C 2653   1.470   1.767   3.092
  266DMSO     O 2654   1.686   1.792   3.268
  266DMSO     H 2655   1.815   1.661   3.024
  266DMSO     H 2656   1.668   1.643   2.926
  266DMSO     H 2657   1.723   1.806   2.975
  266DMSO     H 2658   1.494   1.868   3.054
  266DMSO     H 2659   1.429   1.708   3.010
  266DMSO     H 2660   1.395   1.775   3.171
  267DMSO     C 2661   1.938   2.314   0.987
  267DMSO     S 2662   1.793   2.281   1.091
  267DMSO     C 2663   1.672   2.349   0.976
  267DMSO     O 2664   1.802   2.384   1.220
  267DMSO     H 2665   2.028   2.284   1.040
  267DMSO     H 2666   1.930   2.257   0.894
  267DMSO     H 2667   1.943   2.422   0.963
  267DMSO     H 2668   1.696   2.454   0.952
  267DMSO     H 2669   1.671   2.290   0.884
  267DMSO     H 2670   1.573   2.343   1.022
  268DMSO     C 2671   2.413   0.671   1.800
  268DMSO     S 2672   2.435   0.810   1.915
  268DMSO     C 2673   2.598   0.857   1.855
  268DMSO     O 2674   2.453   0.745   2.066
  268DMSO     H 2675   2.318   0.622   1.822
  268DMSO     H 2676   2.412   0.708   1.697
  268DMSO     H 2677   2.495   0.599   1.812
  268DMSO     H 2678   2.668   0.772   1.864
  268DMSO     H 2679   2.592   0.889   1.752
  268DMSO     H 2680   2.635   0.940   1.916
  269DMSO     C 2681   1.002   1.493   1.635
  269DMSO     S 2682   1.152   1.474   1.735
  269DMSO     C 2683   1.269   1.501   1.601
  269DMSO     O 2684   1.161   1.314   1.778
  269DMSO     H 2685   0.915   1.476   1.697
  269DMSO     H 2686   0.998   1.595   1.595
  269DMSO     H 2687   1.004   1.421   1.552
  269DMSO     H 2688   1.251   1.429   1.520
  269DMSO     H 2689   1.258   1.602   1.562
  269DMSO     H 2690   1.370   1.489   1.639
  270DMSO     C 2691   3.222   1.871   3.666
  270DMSO     S 2692   3.266   1.738   3.551
  270DMSO     C 2693   3.270   1.842   3.403
  270DMSO     O 2694   3.133   1.639   3.539
  270DMSO     H 2695   3.210   1.829   3.765
  270DMSO     H 2696   3.303   1.945   3.669
  270DMSO     H 2697   3.129   1.919   3.634
  270DMSO     H 2698   3.173   1.892   3.390
  270DMSO     H 2699   3.348   1.917   3.413
  270DMSO     H 2700   3.290   1.779   3.316
  271DMSO     C 2701   0.686   2.456   2.186
  271DMSO     S 2702   0.668   2.614   2.098
  271DMSO     C 2703   0.820   2.687   2.161
  271DMSO     O 2704   0.541   2.694   2.167
  271DMSO     H 2705   0.599   2.394   2.166
  271DMSO     H 2706   0.776   2.405   2.152
  271DMSO     H 2707   0.694   2.475   2.294
  271DMSO     H 2708   0.819   2.690   2.271
  271DMSO     H 2709   0.906   2.630   2.127
  271DMSO     H 2710   0.829   2.790   2.122
  272DMSO     C 2711   2.406   0.698   0.559
  272DMSO     S 2712   2.346   0.836   0.661
  272DMSO     C 2713   2.495   0.851   0.762
  272DMSO     O 2714   2.226   0.775   0.759
  272DMSO     H 2715   2.328   0.668   0.491
  272DMSO     H 2716   2.493   0.731   0.502
  272DMSO     H 2717   2.435   0.614   0.624
  272DMSO     H 2718   2.517   0.756   0.812
  272DMSO     H 2719   2.579   0.880   0.699
  272DMSO     H 2720   2.479   0.929   0.837
  273DMSO     C 2721   2.234   1.120   1.433
  273DMSO     S 2722   2.409   1.109   1.385
  273DMSO     C 2723   2.435   0.942   1.448
  273DMSO     O 2724   2.493   1.213   1.482
  273DMSO     H 2725   2.197   1.219   1.407
  273DMSO     H 2726   2.176   1.045   1.379
  273DMSO     H 2727   2.224   1.103   1.541
  273DMSO     H 2728   2.411   0.938   1.555
  273DMSO     H 2729   2.372   0.872   1.394
  273DMSO     H 2730   2.540   0.915   1.433
  274DMSO     C 2731   3.575   1.604   3.399
  274DMSO     S 2732   3.481   1.664   3.256
  274DMSO     C 2733   3.603   1.614   3.132
  274DMSO     O 2734   3.482   1.830   3.263
  274DMSO     H 2735   3.520   1.629   3.490
  274DMSO     H 2736   3.587   1.496   3.393
  274DMSO     H 2737   3.674   1.652   3.401
  274DMSO     H 2738   3.700   1.661   3.153
  274DMSO     H 2739   3.614   1.506   3.133
  274DMSO     H 2740   3.568   1.645   3.033
  275DMSO     C 2741   2.613   0.256   2.529
  275DMSO     S 2742   2.506   0.362   2.631
  275DMSO     C 2743   2.627   0.493   2.655
  275DMSO     O 2744   2.486   0.285   2.776
  275DMSO     H 2745   2.560   0.164   2.505
  275DMSO     H 2746   2.639   0.308   2.437
  275DMSO     H 2747   2.705   0.232   2.585
  275DMSO     H 2748   2.719   0.452   2.701
  275DMSO     H 2749   2.653   0.538   2.559
  275DMSO     H 2750   2.584   0.569   2.720
  276DMSO     C 2751   0.626   0.855   0.513
  276DMSO     S 2752   0.703   0.937   0.656
  276DMSO     C 2753   0.579   1.067   0.672
  276DMSO     O 2754   0.843   1.008   0.601
  276DMSO     H 2755   0.689   0.772   0.482
  276DMSO     H 2756   0.528   0.816   0.542
  276DMSO     H 2757   0.615   0.927   0.431
  276DMSO     H 2758   0.570   1.123   0.578
  276DMSO     H 2759   0.482   1.023   0.696
  276DMSO     H 2760   0.608   1.134   0.752
  277DMSO     C 2761   0.366   2.752   2.483
  277DMSO     S 2762   0.491   2.879   2.519
  277DMSO     C 2763   0.506   2.841   2.695
  277DMSO     O 2764   0.415   3.026   2.506
  277DMSO     H 2765   0.337   2.760   2.379
  277DMSO     H 2766   0.408   2.653   2.501
  277DMSO     H 2767   0.278   2.767   2.547
  277DMSO     H 2768   0.408   2.849   2.744
  277DMSO     H 2769   0.544   2.740   2.707
  277DMSO     H 2770   0.576   2.911   2.740
  278DMSO     C 2771   3.012   0.252   2.724
  278DMSO     S 2772   3.114   0.144   2.620
  278DMSO     C 2773   3.046   0.201   2.463
  278DMSO     O 2774   3.060  -0.011   2.644
  278DMSO     H 2775   3.033   0.231   2.828
  278DMSO     H 2776   3.036   0.357   2.703
  278DMSO     H 2777   2.905   0.234   2.703
  278DMSO     H 2778   2.937   0.187   2.460
  278DMSO     H 2779   3.070   0.307   2.448
  278DMSO     H 2780   3.092   0.144   2.382
  279DMSO     C 2781   0.664   2.040   2.906
  279DMSO     S 2782   0.596   2.174   3.008
  279DMSO     C 2783   0.629   2.095   3.167
  279DMSO     O 2784   0.431   2.173   2.985
  279DMSO     H 2785   0.650   2.065   2.801
  279DMSO     H 2786   0.771   2.030   2.926
  279DMSO     H 2787   0.613   1.946   2.929
  279DMSO     H 2788   0.581   1.997   3.172
  279DMSO     H 2789   0.737   2.084   3.180
  279DMSO     H 2790   0.590   2.159   3.246
  280DMSO     C 2791   1.985   2.623   2.482
  280DMSO     S 2792   2.035   2.747   2.605
  280DMSO     C 2793   1.960   2.664   2.746
  280DMSO     O 2794   1.946   2.884   2.575
  280DMSO     H 2795   2.018   2.656   2.384
  280DMSO     H 2796   2.033   2.527   2.506
  280DMSO     H 2797   1.876   2.611   2.484
  280DMSO     H 2798   1.852   2.649   2.729
  280DMSO     H 2799   2.008   2.567   2.763
  280DMSO     H 2800   1.974   2.726   2.836
  281DMSO     C 2801   1.119   0.881   2.918
  281DMSO     S 2802   1.115   0.979   3.071
  281DMSO     C 2803   1.109   0.838   3.183
  281DMSO     O 2804   0.967   1.054   3.077
  281DMSO     H 2805   1.118   0.949   2.833
  281DMSO     H 2806   1.210   0.821   2.915
  281DMSO     H 2807   1.031   0.815   2.914
  281DMSO     H 2808   1.022   0.775   3.160
  281DMSO     H 2809   1.201   0.780   3.173
  281DMSO     H 2810   1.102   0.875   3.285
  282DMSO     C 2811   3.622   0.663   0.599
  282DMSO     S 2812   3.595   0.796   0.719
  282DMSO     C 2813   3.492   0.699   0.831
  282DMSO     O 2814   3.497   0.908   0.646
  282DMSO     H 2815   3.681   0.701   0.516
  282DMSO     H 2816   3.677   0.581   0.647
  282DMSO     H 2817   3.525   0.625   0.562
  282DMSO     H 2818   3.405   0.659   0.778
  282DMSO     H 2819   3.550   0.617   0.873
  282DMSO     H 2820   3.458   0.763   0.913
  283DMSO     C 2821   0.673   0.342   0.359
  283DMSO     S 2822   0.775   0.474   0.288
  283DMSO     C 2823   0.834   0.539   0.445
  283DMSO     O 2824   0.671   0.586   0.223
  283DMSO     H 2825   0.623   0.290   0.278
  283DMSO     H 2826   0.737   0.271   0.413
  283DMSO     H 2827   0.600   0.385   0.428
  283DMSO     H 2828   0.748   0.568   0.509
  283DMSO     H 2829   0.893   0.464   0.497
  283DMSO     H 2830   0.896   0.627   0.427
  284DMSO     C 2831   2.795   2.762   3.846
  284DMSO     S 2832   2.730   2.931   3.856
  284DMSO     C 2833   2.624   2.919   3.711
  284DMSO     O 2834   2.856   3.033   3.818
  284DMSO     H 2835   2.868   2.747   3.925
  284DMSO     H 2836   2.713   2.691   3.860
  284DMSO     H 2837   2.842   2.746   3.748
  284DMSO     H 2838   2.683   2.891   3.622
  284DMSO     H 2839   2.547   2.844   3.727
  284DMSO     H 2840   2.576   3.016   3.694
  285DMSO     C 2841   3.413   3.460   1.949
  285DMSO     S 2842   3.451   3.531   2.112
  285DMSO     C 2843   3.445   3.703   2.059
  285DMSO     O 2844   3.609   3.494   2.145
  285DMSO     H 2845   3.416   3.352   1.956
  285DMSO     H 2846   3.313   3.492   1.918
  285DMSO     H 2847   3.487   3.494   1.876
  285DMSO     H 2848   3.517   3.720   1.978
  285DMSO     H 2849   3.345   3.728   2.025
  285DMSO     H 2850   3.471   3.767   2.144
  286DMSO     C 2851   0.596   0.474   3.138
  286DMSO     S 2852   0.512   0.633   3.161
  286DMSO     C 2853   0.345   0.567   3.147
  286DMSO     O 2854   0.541   0.724   3.025
  286DMSO     H 2855   0.704   0.491   3.139
  286DMSO     H 2856   0.570   0.407   3.221
  286DMSO     H 2857   0.566   0.429   3.043
  286DMSO     H 2858   0.332   0.515   3.051
  286DMSO     H 2859   0.325   0.498   3.229
  286DMSO     H 2860   0.273   0.650   3.154
  287DMSO     C 2861   1.509   0.234   1.797
  287DMSO     S 2862   1.380   0.329   1.883
  287DMSO     C 2863   1.263   0.193   1.895
  287DMSO     O 2864   1.320   0.438   1.773
  287DMSO     H 2865   1.593   0.301   1.774
  287DMSO     H 2866   1.545   0.154   1.862
  287DMSO     H 2867   1.469   0.192   1.704
  287DMSO     H 2868   1.240   0.153   1.795
  287DMSO     H 2869   1.304   0.114   1.957
  287DMSO     H 2870   1.171   0.230   1.941
  288DMSO     C 2871   3.069   1.128   0.686
  288DMSO     S 2872   3.010   0.997   0.797
  288DMSO     C 2873   3.019   0.864   0.676
  288DMSO     O 2874   2.850   1.027   0.827
  288DMSO     H 2875   3.068   1.222   0.739
  288DMSO     H 2876   3.172   1.106   0.654
  288DMSO     H 2877   3.004   1.133   0.597
  288DMSO     H 2878   2.958   0.888   0.588
  288DMSO     H 2879   3.122   0.849   0.645
  288DMSO     H 2880   2.982   0.772   0.722
  289DMSO     C 2881   1.736   1.195   1.421
  289DMSO     S 2882   1.691   1.350   1.338
  289DMSO     C 2883   1.513   1.326   1.349
  289DMSO     O 2884   1.734   1.333   1.179
  289DMSO     H 2885   1.844   1.185   1.423
  289DMSO     H 2886   1.699   1.197   1.525
  289DMSO     H 2887   1.691   1.110   1.368
  289DMSO     H 2888   1.484   1.232   1.301
  289DMSO     H 2889   1.482   1.325   1.453
  289DMSO     H 2890   1.463   1.409   1.298
  290DMSO     C 2891   1.618   1.203   0.630
  290DMSO     S 2892   1.460   1.257   0.702
  290DMSO     C 2893   1.455   1.417   0.619
  290DMSO     O 2894   1.487   1.284   0.863
  290DMSO     H 2895   1.644   1.106   0.670
  290DMSO     H 2896   1.607   1.195   0.521
  290DMSO     H 2897   1.696   1.276   0.653
  290DMSO     H 2898   1.546   1.475   0.644
  290DMSO     H 2899   1.449   1.403   0.511
  290DMSO     H 2900   1.367   1.472   0.653
  291DMSO     C 2901   0.861   0.461   2.134
  291DMSO     S 2902   0.765   0.490   2.285
  291DMSO     C 2903   0.759   0.670   2.269
  291DMSO     O 2904   0.864   0.455   2.413
  291DMSO     H 2905   0.881   0.355   2.125
  291DMSO     H 2906   0.803   0.494   2.047
  291DMSO     H 2907   0.956   0.517   2.138
  291DMSO     H 2908   0.861   0.711   2.264
  291DMSO     H 2909   0.704   0.697   2.179
  291DMSO     H 2910   0.708   0.712   2.356
  292DMSO     C 2911   0.268   1.236   0.120
  292DMSO     S 2912   0.146   1.142   0.217
  292DMSO     C 2913   0.050   1.285   0.270
  292DMSO     O 2914   0.226   1.083   0.350
  292DMSO     H 2915   0.342   1.167   0.080
  292DMSO     H 2916   0.217   1.286   0.037
  292DMSO     H 2917   0.316   1.311   0.184
  292DMSO     H 2918   0.114   1.356   0.323
  292DMSO     H 2919   0.005   1.334   0.183
  292DMSO     H 2920  -0.030   1.251   0.336
  293DMSO     C 2921   3.447   0.450   2.784
  293DMSO     S 2922   3.578   0.564   2.732
  293DMSO     C 2923   3.608   0.486   2.572
  293DMSO     O 2924   3.710   0.534   2.828
  293DMSO     H 2925   3.415   0.476   2.884
  293DMSO     H 2926   3.362   0.458   2.716
  293DMSO     H 2927   3.485   0.347   2.783
  293DMSO     H 2928   3.635   0.380   2.586
  293DMSO     H 2929   3.520   0.494   2.510
  293DMSO     H 2930   3.691   0.538   2.523
  294DMSO     C 2931   3.024   1.378   2.371
  294DMSO     S 2932   3.138   1.237   2.371
  294DMSO     C 2933   3.265   1.317   2.271
  294DMSO     O 2934   3.068   1.119   2.278
  294DMSO     H 2935   2.933   1.350   2.425
  294DMSO     H 2936   3.071   1.463   2.422
  294DMSO     H 2937   2.999   1.407   2.268
  294DMSO     H 2938   3.223   1.350   2.175
  294DMSO     H 2939   3.306   1.403   2.324
  294DMSO     H 2940   3.346   1.245   2.253
  295DMSO     C 2941   3.054   2.567   0.464
  295DMSO     S 2942   3.178   2.560   0.332
  295DMSO     C 2943   3.064   2.598   0.198
  295DMSO     O 2944   3.223   2.401   0.316
  295DMSO     H 2945   3.102   2.542   0.559
  295DMSO     H 2946   3.013   2.669   0.471
  295DMSO     H 2947   2.973   2.496   0.443
  295DMSO     H 2948   2.982   2.525   0.196
  295DMSO     H 2949   3.023   2.698   0.211
  295DMSO     H 2950   3.118   2.595   0.103
  296DMSO     C 2951   0.575  -0.074   2.450
  296DMSO     S 2952   0.587   0.031   2.303
  296DMSO     C 2953   0.440   0.129   2.337
  296DMSO     O 2954   0.553  -0.066   2.172
  296DMSO     H 2955   0.655  -0.147   2.448
  296DMSO     H 2956   0.585  -0.012   2.540
  296DMSO     H 2957   0.477  -0.125   2.452
  296DMSO     H 2958   0.352   0.064   2.347
  296DMSO     H 2959   0.453   0.185   2.429
  296DMSO     H 2960   0.424   0.199   2.255
  297DMSO     C 2961   0.663   0.088   1.879
  297DMSO     S 2962   0.773   0.028   1.747
  297DMSO     C 2963   0.641  -0.026   1.637
  297DMSO     O 2964   0.848  -0.108   1.805
  297DMSO     H 2965   0.724   0.123   1.962
  297DMSO     H 2966   0.603   0.171   1.842
  297DMSO     H 2967   0.597   0.006   1.913
  297DMSO     H 2968   0.576  -0.099   1.687
  297DMSO     H 2969   0.581   0.060   1.606
  297DMSO     H 2970   0.685  -0.072   1.548
  298DMSO     C 2971   3.423   1.857   0.206
  298DMSO     S 2972   3.509   1.939   0.069
  298DMSO     C 2973   3.447   2.104   0.103
  298DMSO     O 2974   3.438   1.886  -0.072
  298DMSO     H 2975   3.444   1.750   0.202
  298DMSO     H 2976   3.459   1.897   0.301
  298DMSO     H 2977   3.315   1.874   0.197
  298DMSO     H 2978   3.337   2.104   0.103
  298DMSO     H 2979   3.482   2.138   0.201
  298DMSO     H 2980   3.484   2.173   0.027
  299DMSO     C 2981   1.444   3.800   3.209
  299DMSO     S 2982   1.503   3.925   3.092
  299DMSO     C 2983   1.527   3.811   2.954
  299DMSO     O 2984   1.653   3.973   3.143
  299DMSO     H 2985   1.427   3.847   3.306
  299DMSO     H 2986   1.350   3.757   3.173
  299DMSO     H 2987   1.519   3.720   3.220
  299DMSO     H 2988   1.596   3.730   2.983
  299DMSO     H 2989   1.431   3.768   2.925
  299DMSO     H 2990   1.568   3.866   2.869
  300DMSO     C 2991   3.694   1.925   3.617
  300DMSO     S 2992   3.863   1.938   3.554
  300DMSO     C 2993   3.833   1.847   3.401
  300DMSO     O 2994   3.959   1.843   3.651
  300DMSO     H 2995   3.689   1.972   3.715
  300DMSO     H 2996   3.625   1.978   3.550
  300DMSO     H 2997   3.665   1.820   3.625
  300DMSO     H 2998   3.794   1.747   3.424
  300DMSO     H 2999   3.761   1.901   3.340
  300DMSO     H 3000   3.927   1.838   3.346
  301DMSO     C 3001   1.027   0.883   2.315
  301DMSO     S 3002   1.178   0.799   2.258
  301DMSO     C 3003   1.100   0.639   2.229
  301DMSO     O 3004   1.277   0.783   2.389
  301DMSO     H 3005   1.052   0.985   2.343
  301DMSO     H 3006   0.954   0.885   2.234
  301DMSO     H 3007   0.985   0.829   2.401
  301DMSO     H 3008   1.052   0.603   2.321
  301DMSO     H 3009   1.025   0.648   2.151
  301DMSO     H 3010   1.176   0.568   2.197
  302DMSO     C 3011   0.566   0.009   0.423
  302DMSO     S 3012   0.693   0.006   0.293
  302DMSO     C 3013   0.591   0.084   0.166
  302DMSO     O 3014   0.713  -0.153   0.250
  302DMSO     H 3015   0.605  -0.039   0.512
  302DMSO     H 3016   0.540   0.113   0.446
  302DMSO     H 3017   0.476  -0.044   0.388
  302DMSO     H 3018   0.499   0.026   0.150
  302DMSO     H 3019   0.566   0.185   0.196
  302DMSO     H 3020   0.649   0.089   0.073
  303DMSO     C 3021   2.825   3.660   0.147
  303DMSO     S 3022   2.907   3.575   0.285
  303DMSO     C 3023   2.942   3.725   0.380
  303DMSO     O 3024   3.052   3.518   0.227
  303DMSO     H 3025   2.798   3.586   0.072
  303DMSO     H 3026   2.734   3.709   0.183
  303DMSO     H 3027   2.893   3.734   0.103
  303DMSO     H 3028   3.001   3.795   0.320
  303DMSO     H 3029   2.849   3.772   0.410
  303DMSO     H 3030   2.998   3.698   0.470
  304DMSO     C 3031   1.456   0.694   2.287
  304DMSO     S 3032   1.462   0.580   2.146
  304DMSO     C 3033   1.584   0.469   2.218
  304DMSO     O 3034   1.537   0.662   2.022
  304DMSO     H 3035   1.388   0.776   2.263
  304DMSO     H 3036   1.418   0.641   2.375
  304DMSO     H 3037   1.556   0.733   2.308
  304DMSO     H 3038   1.676   0.524   2.244
  304DMSO     H 3039   1.543   0.422   2.308
  304DMSO     H 3040   1.608   0.391   2.145
  305DMSO     C 3041   3.517   2.984   2.910
  305DMSO     S 3042   3.567   2.870   2.778
  305DMSO     C 3043   3.512   2.973   2.642
  305DMSO     O 3044   3.465   2.739   2.787
  305DMSO     H 3045   3.538   2.939   3.006
  305DMSO     H 3046   3.575   3.077   2.901
  305DMSO     H 3047   3.410   3.007   2.901
  305DMSO     H 3048   3.405   2.996   2.652
  305DMSO     H 3049   3.569   3.066   2.640
  305DMSO     H 3050   3.528   2.919   2.548
  306DMSO     C 3051   0.130   0.980   0.997
  306DMSO     S 3052  -0.031   0.968   1.082
  306DMSO     C 3053  -0.047   0.789   1.067
  306DMSO     O 3054  -0.143   1.037   0.982
  306DMSO     H 3055   0.159   1.084   0.991
  306DMSO     H 3056   0.205   0.925   1.055
  306DMSO     H 3057   0.122   0.937   0.897
  306DMSO     H 3058  -0.042   0.759   0.961
  306DMSO     H 3059   0.033   0.740   1.122
  306DMSO     H 3060  -0.143   0.759   1.109
  307DMSO     C 3061   2.289   2.142   0.256
  307DMSO     S 3062   2.375   2.204   0.108
  307DMSO     C 3063   2.317   2.073  -0.002
  307DMSO     O 3064   2.537   2.180   0.133
  307DMSO     H 3065   2.314   2.205   0.340
  307DMSO     H 3066   2.181   2.145   0.239
  307DMSO     H 3067   2.321   2.038   0.276
  307DMSO     H 3068   2.346   1.975   0.036
  307DMSO     H 3069   2.209   2.078  -0.012
  307DMSO     H 3070   2.362   2.088  -0.101
  308DMSO     C 3071   0.985   1.223   0.862
  308DMSO     S 3072   0.928   1.370   0.953
  308DMSO     C 3073   1.082   1.397   1.043
  308DMSO     O 3074   0.814   1.318   1.062
  308DMSO     H 3075   0.903   1.185   0.802
  308DMSO     H 3076   1.068   1.250   0.797
  308DMSO     H 3077   1.018   1.146   0.934
  308DMSO     H 3078   1.108   1.307   1.101
  308DMSO     H 3079   1.162   1.419   0.973
  308DMSO     H 3080   1.069   1.482   1.111
  309DMSO     C 3081   0.765   1.824   1.809
  309DMSO     S 3082   0.855   1.931   1.692
  309DMSO     C 3083   0.772   1.870   1.544
  309DMSO     O 3084   1.012   1.877   1.688
  309DMSO     H 3085   0.803   1.842   1.909
  309DMSO     H 3086   0.658   1.849   1.806
  309DMSO     H 3087   0.779   1.719   1.781
  309DMSO     H 3088   0.786   1.762   1.535
  309DMSO     H 3089   0.666   1.894   1.548
  309DMSO     H 3090   0.816   1.920   1.457
  310DMSO     C 3091   3.928   2.325   0.902
  310DMSO     S 3092   3.766   2.290   0.976
  310DMSO     C 3093   3.680   2.261   0.820
  310DMSO     O 3094   3.710   2.432   1.039
  310DMSO     H 3095   3.998   2.350   0.980
  310DMSO     H 3096   3.964   2.236   0.849
  310DMSO     H 3097   3.919   2.409   0.831
  310DMSO     H 3098   3.689   2.349   0.755
  310DMSO     H 3099   3.722   2.175   0.770
  310DMSO     H 3100   3.574   2.242   0.841
  311DMSO     C 3101   0.269   3.188   1.145
  311DMSO     S 3102   0.122   3.175   1.038
  311DMSO     C 3103   0.172   3.021   0.958
  311DMSO     O 3104   0.133   3.295   0.925
  311DMSO     H 3105   0.262   3.280   1.202
  311DMSO     H 3106   0.271   3.103   1.214
  311DMSO     H 3107   0.360   3.188   1.083
  311DMSO     H 3108   0.270   3.032   0.910
  311DMSO     H 3109   0.177   2.941   1.032
  311DMSO     H 3110   0.097   2.994   0.883
  312DMSO     C 3111   0.507   2.463   3.182
  312DMSO     S 3112   0.618   2.565   3.080
  312DMSO     C 3113   0.573   2.488   2.923
  312DMSO     O 3114   0.773   2.518   3.116
  312DMSO     H 3115   0.521   2.490   3.287
  312DMSO     H 3116   0.403   2.483   3.154
  312DMSO     H 3117   0.530   2.357   3.168
  312DMSO     H 3118   0.591   2.380   2.927
  312DMSO     H 3119   0.468   2.507   2.901
  312DMSO     H 3120   0.634   2.532   2.844
  313DMSO     C 3121   1.255   3.527   1.145
  313DMSO     S 3122   1.217   3.602   1.306
  313DMSO     C 3123   1.247   3.453   1.403
  313DMSO     O 3124   1.054   3.632   1.309
  313DMSO     H 3125   1.238   3.601   1.067
  313DMSO     H 3126   1.359   3.495   1.143
  313DMSO     H 3127   1.189   3.440   1.129
  313DMSO     H 3128   1.182   3.371   1.368
  313DMSO     H 3129   1.351   3.423   1.395
  313DMSO     H 3130   1.225   3.475   1.508
  314DMSO     C 3131   3.267   1.887   2.260
  314DMSO     S 3132   3.326   1.996   2.127
  314DMSO     C 3133   3.385   2.127   2.237
  314DMSO     O 3134   3.192   2.054   2.049
  314DMSO     H 3135   3.222   1.799   2.215
  314DMSO     H 3136   3.352   1.855   2.322
  314DMSO     H 3137   3.194   1.940   2.322
  314DMSO     H 3138   3.304   2.163   2.301
  314DMSO     H 3139   3.467   2.090   2.299
  314DMSO     H 3140   3.423   2.210   2.176
  315DMSO     C 3141   2.773   2.424   0.241
  315DMSO     S 3142   2.816   2.329   0.093
  315DMSO     C 3143   2.695   2.407  -0.015
  315DMSO     O 3144   2.767   2.173   0.119
  315DMSO     H 3145   2.833   2.389   0.324
  315DMSO     H 3146   2.793   2.530   0.224
  315DMSO     H 3147   2.666   2.410   0.264
  315DMSO     H 3148   2.593   2.395   0.026
  315DMSO     H 3149   2.717   2.513  -0.026
  315DMSO     H 3150   2.699   2.360  -0.114
  316DMSO     C 3151   2.802   1.852   1.807
  316DMSO     S 3152   2.914   1.864   1.664
  316DMSO     C 3153   2.788   1.921   1.548
  316DMSO     O 3154   2.955   1.709   1.621
  316DMSO     H 3155   2.858   1.813   1.892
  316DMSO     H 3156   2.764   1.951   1.832
  316DMSO     H 3157   2.719   1.784   1.783
  316DMSO     H 3158   2.705   1.849   1.543
  316DMSO     H 3159   2.749   2.018   1.579
  316DMSO     H 3160   2.833   1.932   1.449
  317DMSO     C 3161   2.661   1.112   3.344
  317DMSO     S 3162   2.596   1.079   3.177
  317DMSO     C 3163   2.563   0.904   3.204
  317DMSO     O 3164   2.724   1.091   3.072
  317DMSO     H 3165   2.692   1.216   3.349
  317DMSO     H 3166   2.582   1.094   3.417
  317DMSO     H 3167   2.746   1.045   3.364
  317DMSO     H 3168   2.655   0.852   3.235
  317DMSO     H 3169   2.487   0.892   3.281
  317DMSO     H 3170   2.526   0.860   3.111
  318DMSO     C 3171   3.276   2.994   1.126
  318DMSO     S 3172   3.105   2.936   1.136
  318DMSO     C 3173   3.125   2.844   1.290
  318DMSO     O 3174   3.084   2.825   1.015
  318DMSO     H 3175   3.289   3.050   1.034
  318DMSO     H 3176   3.298   3.059   1.211
  318DMSO     H 3177   3.345   2.908   1.127
  318DMSO     H 3178   3.205   2.769   1.279
  318DMSO     H 3179   3.151   2.913   1.371
  318DMSO     H 3180   3.031   2.795   1.315
  319DMSO     C 3181   1.020   3.156   3.268
  319DMSO     S 3182   1.099   3.285   3.167
  319DMSO     C 3183   0.991   3.419   3.219
  319DMSO     O 3184   1.063   3.250   3.009
  319DMSO     H 3185   1.068   3.061   3.249
  319DMSO     H 3186   1.031   3.181   3.374
  319DMSO     H 3187   0.913   3.150   3.244
  319DMSO     H 3188   0.886   3.394   3.198
  319DMSO     H 3189   1.003   3.437   3.326
  319DMSO     H 3190   1.018   3.510   3.165
  320DMSO     C 3191   2.351   2.042   3.011
  320DMSO     S 3192   2.389   2.045   3.188
  320DMSO     C 3193   2.537   1.942   3.177
  320DMSO     O 3194   2.272   1.956   3.265
  320DMSO     H 3195   2.258   2.096   2.994
  320DMSO     H 3196   2.432   2.090   2.955
  320DMSO     H 3197   2.339   1.938   2.977
  320DMSO     H 3198   2.513   1.845   3.131
  320DMSO     H 3199   2.613   1.993   3.117
  320DMSO     H 3200   2.576   1.927   3.278
  321DMSO     C 3201   2.968   2.030   0.843
  321DMSO     S 3202   2.931   1.974   0.674
  321DMSO     C 3203   2.906   2.139   0.605
  321DMSO     O 3204   2.783   1.899   0.679
  321DMSO     H 3205   2.982   1.943   0.906
  321DMSO     H 3206   3.059   2.090   0.842
  321DMSO     H 3207   2.884   2.091   0.881
  321DMSO     H 3208   2.827   2.192   0.660
  321DMSO     H 3209   2.999   2.196   0.610
  321DMSO     H 3210   2.877   2.129   0.500
  322DMSO     C 3211   0.175   1.489   3.565
  322DMSO     S 3212   0.154   1.369   3.431
  322DMSO     C 3213   0.139   1.491   3.299
  322DMSO     O 3214   0.005   1.298   3.451
  322DMSO     H 3215   0.182   1.435   3.659
  322DMSO     H 3216   0.267   1.546   3.549
  322DMSO     H 3217   0.089   1.557   3.567
  322DMSO     H 3218   0.055   1.559   3.320
  322DMSO     H 3219   0.231   1.548   3.290
  322DMSO     H 3220   0.120   1.439   3.205
  323DMSO     C 3221   0.794   3.342   2.870
  323DMSO     S 3222   0.774   3.170   2.924
  323DMSO     C 3223   0.614   3.193   3.002
  323DMSO     O 3224   0.885   3.143   3.044
  323DMSO     H 3225   0.891   3.353   2.822
  323DMSO     H 3226   0.715   3.367   2.799
  323DMSO     H 3227   0.788   3.409   2.957
  323DMSO     H 3228   0.620   3.271   3.080
  323DMSO     H 3229   0.540   3.222   2.928
  323DMSO     H 3230   0.582   3.099   3.048
  324DMSO     C 3231   0.768   2.278   0.011
  324DMSO     S 3232   0.651   2.325   0.142
  324DMSO     C 3233   0.758   2.280   0.279
  324DMSO     O 3234   0.526   2.216   0.137
  324DMSO     H 3235   0.721   2.294  -0.086
  324DMSO     H 3236   0.857   2.341   0.018
  324DMSO     H 3237   0.796   2.172   0.023
  324DMSO     H 3238   0.787   2.174   0.272
  324DMSO     H 3239   0.847   2.342   0.279
  324DMSO     H 3240   0.704   2.296   0.373
  325DMSO     C 3241   1.838   1.755   2.649
  325DMSO     S 3242   1.694   1.781   2.542
  325DMSO     C 3243   1.782   1.754   2.387
  325DMSO     O 3244   1.656   1.942   2.550
  325DMSO     H 3245   1.808   1.771   2.753
  325DMSO     H 3246   1.874   1.652   2.638
  325DMSO     H 3247   1.918   1.825   2.622
  325DMSO     H 3248   1.866   1.824   2.378
  325DMSO     H 3249   1.819   1.651   2.382
  325DMSO     H 3250   1.712   1.770   2.304
  326DMSO     C 3251   1.991   0.111   0.866
  326DMSO     S 3252   2.006   0.273   0.947
  326DMSO     C 3253   2.065   0.361   0.801
  326DMSO     O 3254   2.132   0.262   1.054
  326DMSO     H 3255   1.959   0.038   0.939
  326DMSO     H 3256   1.916   0.117   0.786
  326DMSO     H 3257   2.088   0.082   0.823
  326DMSO     H 3258   2.157   0.314   0.763
  326DMSO     H 3259   1.989   0.360   0.723
  326DMSO     H 3260   2.086   0.465   0.828
  327DMSO     C 3261   0.312   2.750   2.142
  327DMSO     S 3262   0.305   2.616   2.020
  327DMSO     C 3263   0.336   2.722   1.876
  327DMSO     O 3264   0.147   2.566   2.011
  327DMSO     H 3265   0.291   2.708   2.241
  327DMSO     H 3266   0.412   2.794   2.143
  327DMSO     H 3267   0.237   2.827   2.118
  327DMSO     H 3268   0.260   2.801   1.870
  327DMSO     H 3269   0.435   2.767   1.884
  327DMSO     H 3270   0.332   2.660   1.786
  328DMSO     C 3271   2.989   0.765   0.047
  328DMSO     S 3272   3.067   0.898  -0.048
  328DMSO     C 3273   2.998   1.034   0.049
  328DMSO     O 3274   2.994   0.900  -0.197
  328DMSO     H 3275   3.014   0.670   0.002
  328DMSO     H 3276   3.026   0.767   0.150
  328DMSO     H 3277   2.880   0.779   0.047
  328DMSO     H 3278   2.888   1.028   0.049
  328DMSO     H 3279   3.035   1.029   0.151
  328DMSO     H 3280   3.030   1.129   0.004
  329DMSO     C 3281   3.572   0.077   0.093
  329DMSO     S 3282   3.628  -0.046   0.215
  329DMSO     C 3283   3.605   0.059   0.359
  329DMSO     O 3284   3.792  -0.064   0.192
  329DMSO     H 3285   3.581   0.035  -0.006
  329DMSO     H 3286   3.466   0.101   0.112
  329DMSO     H 3287   3.632   0.168   0.102
  329DMSO     H 3288   3.663   0.152   0.349
  329DMSO     H 3289   3.500   0.084   0.371
  329DMSO     H 3290   3.639   0.005   0.448
  330DMSO     C 3291   1.913   3.455   0.407
  330DMSO     S 3292   1.765   3.376   0.477
  330DMSO     C 3293   1.766   3.469   0.631
  330DMSO     O 3294   1.807   3.219   0.513
  330DMSO     H 3295   1.935   3.409   0.311
  330DMSO     H 3296   1.894   3.562   0.392
  330DMSO     H 3297   1.998   3.442   0.475
  330DMSO     H 3298   1.862   3.455   0.684
  330DMSO     H 3299   1.751   3.575   0.611
  330DMSO     H 3300   1.685   3.433   0.695
  331DMSO     C 3301   2.849   0.312   3.015
  331DMSO     S 3302   2.701   0.321   3.119
  331DMSO     C 3303   2.727   0.492   3.173
  331DMSO     O 3304   2.728   0.223   3.250
  331DMSO     H 3305   2.857   0.212   2.973
  331DMSO     H 3306   2.841   0.384   2.933
  331DMSO     H 3307   2.939   0.335   3.074
  331DMSO     H 3308   2.826   0.502   3.221
  331DMSO     H 3309   2.722   0.559   3.087
  331DMSO     H 3310   2.649   0.519   3.244
  332DMSO     C 3311   0.962   3.944   1.945
  332DMSO     S 3312   0.895   3.854   2.088
  332DMSO     C 3313   1.013   3.718   2.080
  332DMSO     O 3314   0.747   3.794   2.042
  332DMSO     H 3315   0.900   4.032   1.928
  332DMSO     H 3316   1.064   3.976   1.967
  332DMSO     H 3317   0.961   3.880   1.857
  332DMSO     H 3318   1.008   3.669   1.982
  332DMSO     H 3319   1.114   3.755   2.098
  332DMSO     H 3320   0.988   3.645   2.158
  333DMSO     C 3321   1.090   2.232   1.396
  333DMSO     S 3322   1.118   2.171   1.565
  333DMSO     C 3323   1.049   2.315   1.648
  333DMSO     O 3324   1.282   2.173   1.590
  333DMSO     H 3325   1.130   2.160   1.325
  333DMSO     H 3326   0.983   2.243   1.379
  333DMSO     H 3327   1.140   2.329   1.383
  333DMSO     H 3328   1.102   2.407   1.617
  333DMSO     H 3329   0.943   2.324   1.624
  333DMSO     H 3330   1.060   2.302   1.756
  334DMSO     C 3331   3.276   3.044   0.488
  334DMSO     S 3332   3.446   3.104   0.509
  334DMSO     C 3333   3.526   2.956   0.446
  334DMSO     O 3334   3.475   3.111   0.673
  334DMSO     H 3335   3.207   3.120   0.526
  334DMSO     H 3336   3.256   3.028   0.382
  334DMSO     H 3337   3.262   2.950   0.543
  334DMSO     H 3338   3.495   2.868   0.504
  334DMSO     H 3339   3.500   2.941   0.341
  334DMSO     H 3340   3.634   2.968   0.454
  335DMSO     C 3341   0.319   0.864   0.119
  335DMSO     S 3342   0.422   0.932   0.253
  335DMSO     C 3343   0.314   0.881   0.387
  335DMSO     O 3344   0.414   1.097   0.242
  335DMSO     H 3345   0.365   0.888   0.024
  335DMSO     H 3346   0.312   0.756   0.129
  335DMSO     H 3347   0.219   0.908   0.124
  335DMSO     H 3348   0.213   0.923   0.373
  335DMSO     H 3349   0.307   0.772   0.390
  335DMSO     H 3350   0.355   0.916   0.482
  336DMSO     C 3351   1.516   0.116   3.651
  336DMSO     S 3352   1.513   0.280   3.729
  336DMSO     C 3353   1.674   0.265   3.809
  336DMSO     O 3354   1.397   0.275   3.848
  336DMSO     H 3355   1.423   0.100   3.599
  336DMSO     H 3356   1.599   0.111   3.580
  336DMSO     H 3357   1.529   0.039   3.728
  336DMSO     H 3358   1.676   0.177   3.875
  336DMSO     H 3359   1.752   0.257   3.734
  336DMSO     H 3360   1.692   0.355   3.869
  337DMSO     C 3361   0.880   3.074   0.188
  337DMSO     S 3362   0.759   3.209   0.171
  337DMSO     C 3363   0.747   3.200  -0.009
  337DMSO     O 3364   0.839   3.350   0.208
  337DMSO     H 3365   0.906   3.064   0.293
  337DMSO     H 3366   0.835   2.981   0.154
  337DMSO     H 3367   0.969   3.096   0.129
  337DMSO     H 3368   0.846   3.213  -0.055
  337DMSO     H 3369   0.706   3.103  -0.038
  337DMSO     H 3370   0.680   3.279  -0.044
  338DMSO     C 3371   2.697   3.748   1.587
  338DMSO     S 3372   2.632   3.656   1.444
  338DMSO     C 3373   2.659   3.788   1.324
  338DMSO     O 3374   2.468   3.642   1.467
  338DMSO     H 3375   2.686   3.687   1.676
  338DMSO     H 3376   2.803   3.770   1.571
  338DMSO     H 3377   2.642   3.842   1.599
  338DMSO     H 3378   2.606   3.880   1.355
  338DMSO     H 3379   2.766   3.809   1.315
  338DMSO     H 3380   2.621   3.755   1.227
  339DMSO     C 3381   2.334   0.093   2.647
  339DMSO     S 3382   2.322  -0.063   2.739
  339DMSO     C 3383   2.314   0.013   2.902
  339DMSO     O 3384   2.470  -0.138   2.726
  339DMSO     H 3385   2.345   0.071   2.541
  339DMSO     H 3386   2.243   0.152   2.662
  339DMSO     H 3387   2.421   0.151   2.682
  339DMSO     H 3388   2.402   0.077   2.920
  339DMSO     H 3389   2.224   0.074   2.911
  339DMSO     H 3390   2.311  -0.066   2.978
  340DMSO     C 3391   2.275   1.234   1.182
  340DMSO     S 3392   2.405   1.108   1.179
  340DMSO     C 3393   2.543   1.223   1.189
  340DMSO     O 3394   2.405   1.042   1.026
  340DMSO     H 3395   2.178   1.185   1.172
  340DMSO     H 3396   2.278   1.288   1.277
  340DMSO     H 3397   2.290   1.305   1.099
  340DMSO     H 3398   2.539   1.295   1.105
  340DMSO     H 3399   2.540   1.277   1.283
  340DMSO     H 3400   2.637   1.167   1.183
  341PF6      F 3401   1.497   3.598   0.382
  341PF6      P 3402   1.452   3.662   0.240
  341PF6      F 3403   1.431   3.807   0.312
  341PF6      F 3404   1.607   3.700   0.207
  341PF6      F 3405   1.406   3.726   0.097
  341PF6      F 3406   1.472   3.517   0.168
  341PF6      F 3407   1.297   3.624   0.272
  342PF6      F 3408   2.291   2.974   0.292
  342PF6      P 3409   2.418   2.974   0.190
  342PF6      F 3410   2.316   2.990   0.063
  342PF6      F 3411   2.429   3.136   0.202
  342PF6      F 3412   2.545   2.973   0.088
  342PF6      F 3413   2.519   2.957   0.316
  342PF6      F 3414   2.407   2.811   0.178
  343PF6      F 3415   3.807   0.449   2.344
  343PF6      P 3416   3.682   0.472   2.242
  343PF6      F 3417   3.743   0.359   2.142
  343PF6      F 3418   3.597   0.357   2.320
  343PF6      F 3419   3.557   0.495   2.140
  343PF6      F 3420   3.621   0.585   2.342
  343PF6      F 3421   3.767   0.587   2.164
  344PF6      F 3422   2.064   1.340   2.937
  344PF6      P 3423   1.971   1.289   3.061
  344PF6      F 3424   2.042   1.398   3.159
  344PF6      F 3425   1.858   1.400   3.021
  344PF6      F 3426   1.877   1.239   3.185
  344PF6      F 3427   1.899   1.181   2.963
  344PF6      F 3428   2.083   1.179   3.101
  345PF6      F 3429   1.987   0.378   0.409
  345PF6      P 3430   2.060   0.260   0.324
  345PF6      F 3431   2.206   0.320   0.366
  345PF6      F 3432   2.061   0.165   0.457
  345PF6      F 3433   2.133   0.142   0.239
  345PF6      F 3434   1.914   0.200   0.282
  345PF6      F 3435   2.059   0.355   0.192
  346PF6      F 3436   1.699   0.919   1.472
  346PF6      P 3437   1.629   0.774   1.497
  346PF6      F 3438   1.570   0.827   1.640
  346PF6      F 3439   1.494   0.827   1.422
  346PF6      F 3440   1.558   0.629   1.523
  346PF6      F 3441   1.687   0.720   1.355
  346PF6      F 3442   1.763   0.721   1.572
  347PF6      F 3443   1.542   0.972   1.780
  347PF6      P 3444   1.392   1.000   1.724
  347PF6      F 3445   1.405   1.157   1.768
  347PF6      F 3446   1.454   1.036   1.577
  347PF6      F 3447   1.242   1.029   1.668
  347PF6      F 3448   1.379   0.844   1.680
  347PF6      F 3449   1.330   0.964   1.870
  348PF6      F 3450   3.680   3.269   3.685
  348PF6      P 3451   3.669   3.339   3.538
  348PF6      F 3452   3.828   3.374   3.543
  348PF6      F 3453   3.702   3.196   3.468
  348PF6      F 3454   3.658   3.409   3.392
  348PF6      F 3455   3.510   3.304   3.534
  348PF6      F 3456   3.636   3.482   3.609
  349PF6      F 3457   0.685   0.801   1.497
  349PF6      P 3458   0.529   0.758   1.518
  349PF6      F 3459   0.490   0.837   1.380
  349PF6      F 3460   0.555   0.622   1.433
  349PF6      F 3461   0.373   0.716   1.538
  349PF6      F 3462   0.569   0.680   1.655
  349PF6      F 3463   0.504   0.895   1.603
  350PF6      F 3464   1.888   1.923   3.166
  350PF6      P 3465   2.041   1.905   3.114
  350PF6      F 3466   2.055   1.767   3.200
  350PF6      F 3467   1.988   1.820   2.985
  350PF6      F 3468   2.194   1.888   3.061
  350PF6      F 3469   2.027   2.043   3.028
  350PF6      F 3470   2.094   1.990   3.242
  351PF6      F 3471   3.009   1.984   2.235
  351PF6      P 3472   2.862   2.032   2.286
  351PF6      F 3473   2.841   2.114   2.146
  351PF6      F 3474   2.795   1.900   2.219
  351PF6      F 3475   2.715   2.081   2.337
  351PF6      F 3476   2.883   1.951   2.425
  351PF6      F 3477   2.929   2.165   2.353
  352PF6      F 3478   2.426   2.762   0.679
  352PF6      P 3479   2.372   2.700   0.538
  352PF6      F 3480   2.264   2.821   0.527
  352PF6      F 3481   2.481   2.790   0.457
  352PF6      F 3482   2.318   2.638   0.398
  352PF6      F 3483   2.481   2.579   0.550
  352PF6      F 3484   2.263   2.610   0.620
  353PF6      F 3485   0.739   0.664   3.348
  353PF6      P 3486   0.900   0.654   3.331
  353PF6      F 3487   0.915   0.616   3.489
  353PF6      F 3488   0.887   0.496   3.293
  353PF6      F 3489   1.062   0.644   3.314
  353PF6      F 3490   0.886   0.693   3.173
  353PF6      F 3491   0.914   0.812   3.368
  354PF6      F 3492   2.774   0.799   2.103
  354PF6      P 3493   2.824   0.644   2.093
  354PF6      F 3494   2.933   0.687   1.979
  354PF6      F 3495   2.934   0.671   2.209
  354PF6      F 3496   2.874   0.489   2.082
  354PF6      F 3497   2.715   0.601   2.206
  354PF6      F 3498   2.713   0.616   1.976
  355PF6      F 3499   1.835   1.757   3.834
  355PF6      P 3500   1.701   1.836   3.785
  355PF6      F 3501   1.645   1.834   3.938
  355PF6      F 3502   1.775   1.979   3.814
  355PF6      F 3503   1.567   1.915   3.737
  355PF6      F 3504   1.758   1.838   3.632
  355PF6      F 3505   1.627   1.694   3.756
  356PF6      F 3506   2.786   3.160   1.371
  356PF6      P 3507   2.948   3.168   1.388
  356PF6      F 3508   2.933   3.136   1.547
  356PF6      F 3509   2.958   3.008   1.357
  356PF6      F 3510   3.110   3.176   1.404
  356PF6      F 3511   2.963   3.200   1.228
  356PF6      F 3512   2.937   3.328   1.418
  357PF6      F 3513   1.043   2.911   3.287
  357PF6      P 3514   0.985   2.873   3.139
  357PF6      F 3515   0.933   2.729   3.196
  357PF6      F 3516   0.841   2.940   3.179
  357PF6      F 3517   0.927   2.836   2.991
  357PF6      F 3518   1.036   3.017   3.082
  357PF6      F 3519   1.128   2.807   3.100
  358PF6      F 3520   0.511   3.379   1.862
  358PF6      P 3521   0.490   3.540   1.881
  358PF6      F 3522   0.468   3.556   1.721
  358PF6      F 3523   0.330   3.517   1.900
  358PF6      F 3524   0.470   3.700   1.901
  358PF6      F 3525   0.512   3.523   2.042
  358PF6      F 3526   0.650   3.563   1.862
  359PF6      F 3527   2.498   3.832   2.825
  359PF6      P 3528   2.656   3.803   2.849
  359PF6      F 3529   2.621   3.654   2.907
  359PF6      F 3530   2.668   3.741   2.699
  359PF6      F 3531   2.815   3.774   2.873
  359PF6      F 3532   2.692   3.951   2.791
  359PF6      F 3533   2.645   3.864   2.999
  360PF6      F 3534   1.942   1.639   0.684
  360PF6      P 3535   2.048   1.664   0.563
  360PF6      F 3536   2.036   1.508   0.519
  360PF6      F 3537   1.924   1.701   0.463
  360PF6      F 3538   2.154   1.690   0.442
  360PF6      F 3539   2.059   1.821   0.607
  360PF6      F 3540   2.171   1.628   0.663
  361PF6      F 3541   1.165   2.517   2.306
  361PF6      P 3542   1.126   2.672   2.274
  361PF6      F 3543   0.968   2.632   2.274
  361PF6      F 3544   1.118   2.704   2.433
  361PF6      F 3545   1.086   2.827   2.241
  361PF6      F 3546   1.284   2.712   2.273
  361PF6      F 3547   1.133   2.640   2.114
  362PF6      F 3548   3.064   1.678   3.372
  362PF6      P 3549   2.922   1.599   3.353
  362PF6      F 3550   3.003   1.464   3.311
  362PF6      F 3551   2.927   1.553   3.509
  362PF6      F 3552   2.781   1.521   3.334
  362PF6      F 3553   2.842   1.734   3.395
  362PF6      F 3554   2.918   1.645   3.197
  363PF6      F 3555   0.158  -0.136   1.136
  363PF6      P 3556   0.175   0.026   1.145
  363PF6      F 3557   0.114   0.040   0.994
  363PF6      F 3558   0.025   0.038   1.207
  363PF6      F 3559   0.192   0.188   1.153
  363PF6      F 3560   0.237   0.011   1.295
  363PF6      F 3561   0.325   0.013   1.082
  364PF6      F 3562   2.710   1.174   1.702
  364PF6      P 3563   2.866   1.216   1.678
  364PF6      F 3564   2.899   1.178   1.833
  364PF6      F 3565   2.900   1.063   1.634
  364PF6      F 3566   3.021   1.258   1.655
  364PF6      F 3567   2.832   1.253   1.523
  364PF6      F 3568   2.831   1.369   1.723
  365PF6      F 3569   2.049   2.955   2.947
  365PF6      P 3570   1.914   3.020   2.883
  365PF6      F 3571   1.941   2.940   2.744
  365PF6      F 3572   1.827   2.894   2.939
  365PF6      F 3573   1.778   3.085   2.819
  365PF6      F 3574   1.886   3.100   3.023
  365PF6      F 3575   2.000   3.146   2.828
  366PF6      F 3576   1.436   2.638   3.580
  366PF6      P 3577   1.530   2.505   3.583
  366PF6      F 3578   1.635   2.578   3.482
  366PF6      F 3579   1.611   2.565   3.711
  366PF6      F 3580   1.624   2.372   3.586
  366PF6      F 3581   1.424   2.433   3.684
  366PF6      F 3582   1.449   2.445   3.455
  367PF6      F 3583   2.640   2.426   1.095
  367PF6      P 3584   2.755   2.311   1.106
  367PF6      F 3585   2.716   2.257   0.958
  367PF6      F 3586   2.864   2.413   1.040
  367PF6      F 3587   2.870   2.195   1.118
  367PF6      F 3588   2.795   2.365   1.255
  367PF6      F 3589   2.646   2.209   1.172
  368PF6      F 3590   2.757   0.807   2.946
  368PF6      P 3591   2.609   0.744   2.925
  368PF6      F 3592   2.617   0.777   2.766
  368PF6      F 3593   2.675   0.597   2.898
  368PF6      F 3594   2.460   0.680   2.904
  368PF6      F 3595   2.600   0.711   3.084
  368PF6      F 3596   2.542   0.890   2.952
  369PF6      F 3597   2.445   0.818   2.329
  369PF6      P 3598   2.284   0.793   2.342
  369PF6      F 3599   2.268   0.812   2.181
  369PF6      F 3600   2.307   0.633   2.321
  369PF6      F 3601   2.124   0.768   2.356
  369PF6      F 3602   2.301   0.774   2.503
  369PF6      F 3603   2.261   0.953   2.364
  370PF6      F 3604   3.528   3.740   2.930
  370PF6      P 3605   3.394   3.691   3.010
  370PF6      F 3606   3.488   3.618   3.122
  370PF6      F 3607   3.396   3.828   3.097
  370PF6      F 3608   3.261   3.642   3.089
  370PF6      F 3609   3.301   3.764   2.898
  370PF6      F 3610   3.393   3.554   2.922
  371PF6      F 3611   3.109   2.916   1.862
  371PF6      P 3612   2.975   2.827   1.838
  371PF6      F 3613   3.068   2.698   1.801
  371PF6      F 3614   2.975   2.783   1.994
  371PF6      F 3615   2.841   2.738   1.813
  371PF6      F 3616   2.883   2.956   1.874
  371PF6      F 3617   2.975   2.871   1.681
  372PF6      F 3618   3.795   3.467   2.731
  372PF6      P 3619   3.656   3.382   2.737
  372PF6      F 3620   3.646   3.389   2.574
  372PF6      F 3621   3.741   3.243   2.725
  372PF6      F 3622   3.517   3.297   2.742
  372PF6      F 3623   3.667   3.375   2.899
  372PF6      F 3624   3.572   3.521   2.748
  373PF6      F 3625   2.136   1.651   1.976
  373PF6      P 3626   2.008   1.584   2.052
  373PF6      F 3627   1.909   1.694   1.983
  373PF6      F 3628   1.985   1.485   1.924
  373PF6      F 3629   1.880   1.516   2.127
  373PF6      F 3630   2.106   1.473   2.120
  373PF6      F 3631   2.030   1.682   2.179
  374PF6      F 3632   1.659   0.648   3.545
  374PF6      P 3633   1.713   0.640   3.391
  374PF6      F 3634   1.786   0.498   3.424
  374PF6      F 3635   1.577   0.561   3.348
  374PF6      F 3636   1.767   0.633   3.238
  374PF6      F 3637   1.639   0.782   3.359
  374PF6      F 3638   1.848   0.720   3.435
  375LI      Li 3639   0.548   0.925   3.044
  376LI      Li 3640   2.180   0.377   0.562
  377LI      Li 3641   2.440   1.612   0.775
  378LI      Li 3642   3.431   1.839   2.959
  379LI      Li 3643   2.129   0.852   3.300
  380LI      Li 3644   1.423   1.594   0.990
  381LI      Li 3645   2.787   1.720   2.683
  382LI      Li 3646   2.549   2.824   3.240
  383LI      Li 3647   1.226   1.403   0.135
  384LI      Li 3648   1.459   3.154   1.645
  385LI      Li 3649   1.530   0.095   0.692
  386LI      Li 3650   0.920   3.230   2.507
  387LI      Li 3651   2.003   1.904   1.034
  388LI      Li 3652   3.018   0.663   0.502
  389LI      Li 3653   1.433   2.251   1.224
  390LI      Li 3654   0.962   0.031   3.569
  391LI      Li 3655   1.182   1.602   0.526
  392LI      Li 3656   3.280   2.878   1.967
  393LI      Li 3657   0.934   2.391   1.917
  394LI      Li 3658   2.476   2.733   3.462
  395LI      Li 3659   1.450   0.401   0.411
  396LI      Li 3660   1.455   3.469   0.773
  397LI      Li 3661   1.811   3.016   1.253
  398LI      Li 3662   3.616   3.736   2.601
  399LI      Li 3663   1.977   2.343   2.458
  400LI      Li 3664   1.385   3.146   1.337
  401LI      Li 3665   0.742   0.816   2.519
  402LI      Li 3666   3.438   2.477   3.365
  403LI      Li 3667   3.754   1.699   2.870
  404LI      Li 3668   0.237   3.514   3.309
  405LI      Li 3669   0.273   2.177   2.810
  406LI      Li 3670   3.763   1.760   1.172
  407LI      Li 3671   2.211   0.352   1.752
  408LI      Li 3672   2.656   3.146   2.435
   3.83000   3.83000   3.83000
