A Gromacs structure file written by ASE
 3740
    1EC       O    1   2.179   1.907   1.915
    1EC       C    2   2.057   1.908   1.913
    1EC       O    3   1.978   1.798   1.928
    1EC       C    4   1.847   1.837   1.895
    1EC       C    5   1.848   1.984   1.923
    1EC       O    6   1.982   2.021   1.894
    1EC       H    7   1.830   1.815   1.789
    1EC       H    8   1.773   1.784   1.955
    1EC       H    9   1.827   2.006   2.028
    1EC       H   10   1.778   2.040   1.860
    2EC       O   11   2.569   1.006   1.197
    2EC       C   12   2.549   1.091   1.281
    2EC       O   13   2.523   1.066   1.413
    2EC       C   14   2.481   1.188   1.470
    2EC       C   15   2.546   1.290   1.382
    2EC       O   16   2.549   1.226   1.255
    2EC       H   17   2.372   1.193   1.465
    2EC       H   18   2.513   1.196   1.574
    2EC       H   19   2.648   1.312   1.413
    2EC       H   20   2.490   1.384   1.376
    3EC       O   21   2.731   1.611  -0.252
    3EC       C   22   2.731   1.618  -0.130
    3EC       O   23   2.661   1.535  -0.048
    3EC       C   24   2.668   1.590   0.081
    3EC       C   25   2.794   1.670   0.077
    3EC       O   26   2.801   1.712  -0.059
    3EC       H   27   2.579   1.653   0.097
    3EC       H   28   2.671   1.513   0.158
    3EC       H   29   2.882   1.609   0.100
    3EC       H   30   2.792   1.757   0.144
    4EC       O   31   3.296   0.516   0.086
    4EC       C   32   3.378   0.504   0.176
    4EC       O   33   3.448   0.390   0.202
    4EC       C   34   3.512   0.409   0.326
    4EC       C   35   3.525   0.557   0.335
    4EC       O   36   3.410   0.603   0.264
    4EC       H   37   3.447   0.368   0.405
    4EC       H   38   3.609   0.359   0.329
    4EC       H   39   3.614   0.594   0.284
    4EC       H   40   3.524   0.595   0.438
    5EC       O   41   3.424   2.571   1.974
    5EC       C   42   3.491   2.571   2.076
    5EC       O   43   3.549   2.460   2.130
    5EC       C   44   3.594   2.497   2.259
    5EC       C   45   3.614   2.645   2.246
    5EC       O   46   3.514   2.682   2.152
    5EC       H   47   3.515   2.471   2.331
    5EC       H   48   3.686   2.445   2.285
    5EC       H   49   3.712   2.669   2.206
    5EC       H   50   3.599   2.698   2.341
    6EC       O   51   1.992   2.398   0.500
    6EC       C   52   2.050   2.313   0.566
    6EC       O   53   2.038   2.298   0.701
    6EC       C   54   2.138   2.208   0.741
    6EC       C   55   2.162   2.127   0.617
    6EC       O   56   2.136   2.221   0.513
    6EC       H   57   2.227   2.265   0.771
    6EC       H   58   2.105   2.146   0.824
    6EC       H   59   2.092   2.044   0.607
    6EC       H   60   2.264   2.089   0.609
    7EC       O   61   0.383   0.668   3.676
    7EC       C   62   0.444   0.570   3.715
    7EC       O   63   0.553   0.516   3.653
    7EC       C   64   0.578   0.392   3.714
    7EC       C   65   0.519   0.410   3.851
    7EC       O   66   0.411   0.499   3.827
    7EC       H   67   0.526   0.314   3.657
    7EC       H   68   0.684   0.370   3.717
    7EC       H   69   0.590   0.458   3.919
    7EC       H   70   0.484   0.317   3.895
    8EC       O   71   2.160   0.248   0.655
    8EC       C   72   2.140   0.198   0.546
    8EC       O   73   2.102   0.069   0.525
    8EC       C   74   2.114   0.045   0.387
    8EC       C   75   2.097   0.181   0.328
    8EC       O   76   2.153   0.266   0.427
    8EC       H   77   2.213   0.003   0.367
    8EC       H   78   2.037  -0.025   0.352
    8EC       H   79   1.992   0.208   0.314
    8EC       H   80   2.150   0.194   0.233
    9EC       O   81   1.836   2.577   1.503
    9EC       C   82   1.817   2.697   1.517
    9EC       O   83   1.824   2.789   1.417
    9EC       C   84   1.820   2.916   1.478
    9EC       C   85   1.748   2.889   1.606
    9EC       O   86   1.786   2.756   1.637
    9EC       H   87   1.923   2.949   1.494
    9EC       H   88   1.769   2.989   1.415
    9EC       H   89   1.639   2.893   1.593
    9EC       H   90   1.777   2.958   1.686
   10EC       O   91   1.313   3.524   3.090
   10EC       C   92   1.205   3.504   3.036
   10EC       O   93   1.093   3.579   3.056
   10EC       C   94   0.987   3.509   2.996
   10EC       C   95   1.055   3.427   2.891
   10EC       O   96   1.182   3.401   2.949
   10EC       H   97   0.939   3.447   3.073
   10EC       H   98   0.913   3.577   2.954
   10EC       H   99   1.069   3.483   2.798
   10EC       H  100   1.002   3.334   2.869
   11EC       O  101   0.370   1.809  -0.143
   11EC       C  102   0.447   1.744  -0.074
   11EC       O  103   0.523   1.640  -0.117
   11EC       C  104   0.577   1.578  -0.003
   11EC       C  105   0.579   1.689   0.097
   11EC       O  106   0.467   1.768   0.060
   11EC       H  107   0.510   1.497   0.027
   11EC       H  108   0.676   1.538  -0.023
   11EC       H  109   0.670   1.750   0.088
   11EC       H  110   0.570   1.654   0.200
   12EC       O  111   1.390   0.086   1.979
   12EC       C  112   1.465   0.099   1.884
   12EC       O  113   1.600   0.119   1.893
   12EC       C  114   1.645   0.153   1.764
   12EC       C  115   1.542   0.089   1.675
   12EC       O  116   1.424   0.096   1.753
   12EC       H  117   1.645   0.262   1.755
   12EC       H  118   1.745   0.115   1.745
   12EC       H  119   1.566  -0.016   1.654
   12EC       H  120   1.529   0.142   1.580
   13EC       O  121   0.889   0.790   2.768
   13EC       C  122   0.859   0.809   2.885
   13EC       O  123   0.863   0.929   2.948
   13EC       C  124   0.846   0.904   3.086
   13EC       C  125   0.770   0.775   3.086
   13EC       O  126   0.818   0.709   2.970
   13EC       H  127   0.945   0.894   3.132
   13EC       H  128   0.791   0.985   3.135
   13EC       H  129   0.662   0.791   3.077
   13EC       H  130   0.790   0.715   3.176
   14EC       O  131   2.212   1.170   3.543
   14EC       C  132   2.227   1.093   3.636
   14EC       O  133   2.144   0.990   3.667
   14EC       C  134   2.183   0.943   3.794
   14EC       C  135   2.327   0.981   3.801
   14EC       O  136   2.332   1.101   3.724
   14EC       H  137   2.123   0.993   3.870
   14EC       H  138   2.168   0.835   3.802
   14EC       H  139   2.392   0.906   3.754
   14EC       H  140   2.362   0.999   3.903
   15EC       O  141   0.974   1.280   0.480
   15EC       C  142   0.893   1.205   0.530
   15EC       O  143   0.919   1.118   0.632
   15EC       C  144   0.808   1.033   0.644
   15EC       C  145   0.697   1.116   0.588
   15EC       O  146   0.762   1.195   0.489
   15EC       H  147   0.827   0.943   0.584
   15EC       H  148   0.790   1.005   0.747
   15EC       H  149   0.653   1.182   0.663
   15EC       H  150   0.617   1.056   0.542
   16EC       O  151   1.819   0.806   0.913
   16EC       C  152   1.931   0.837   0.878
   16EC       O  153   1.969   0.862   0.750
   16EC       C  154   2.109   0.870   0.749
   16EC       C  155   2.141   0.911   0.889
   16EC       O  156   2.037   0.851   0.964
   16EC       H  157   2.149   0.771   0.724
   16EC       H  158   2.145   0.942   0.675
   16EC       H  159   2.136   1.019   0.902
   16EC       H  160   2.239   0.875   0.923
   17EC       O  161   0.465   2.482   1.912
   17EC       C  162   0.457   2.438   1.799
   17EC       O  163   0.348   2.372   1.749
   17EC       C  164   0.387   2.316   1.626
   17EC       C  165   0.500   2.405   1.583
   17EC       O  166   0.557   2.446   1.706
   17EC       H  167   0.421   2.213   1.644
   17EC       H  168   0.306   2.315   1.554
   17EC       H  169   0.464   2.494   1.530
   17EC       H  170   0.574   2.353   1.521
   18EC       O  171   0.292   1.564   2.149
   18EC       C  172   0.349   1.664   2.108
   18EC       O  173   0.483   1.675   2.089
   18EC       C  174   0.510   1.811   2.065
   18EC       C  175   0.380   1.861   2.010
   18EC       O  176   0.284   1.780   2.076
   18EC       H  177   0.536   1.858   2.160
   18EC       H  178   0.592   1.824   1.995
   18EC       H  179   0.372   1.845   1.902
   18EC       H  180   0.362   1.967   2.032
   19EC       O  181   0.758   1.920   2.043
   19EC       C  182   0.805   1.929   2.156
   19EC       O  183   0.916   1.863   2.199
   19EC       C  184   0.921   1.880   2.339
   19EC       C  185   0.847   2.008   2.359
   19EC       O  186   0.751   2.007   2.255
   19EC       H  187   0.871   1.795   2.386
   19EC       H  188   1.024   1.886   2.374
   19EC       H  189   0.912   2.096   2.347
   19EC       H  190   0.798   2.014   2.457
   20EC       O  191   0.128   1.739   0.311
   20EC       C  192   0.072   1.840   0.351
   20EC       O  193   0.004   1.927   0.272
   20EC       C  194  -0.024   2.040   0.351
   20EC       C  195  -0.025   1.984   0.489
   20EC       O  196   0.070   1.879   0.482
   20EC       H  197   0.056   2.114   0.336
   20EC       H  198  -0.120   2.086   0.324
   20EC       H  199  -0.123   1.943   0.516
   20EC       H  200   0.005   2.058   0.565
   21EC       O  201   2.513   2.836   2.021
   21EC       C  202   2.596   2.809   1.937
   21EC       O  203   2.573   2.806   1.802
   21EC       C  204   2.685   2.747   1.742
   21EC       C  205   2.794   2.776   1.841
   21EC       O  206   2.726   2.776   1.965
   21EC       H  207   2.666   2.639   1.732
   21EC       H  208   2.706   2.790   1.644
   21EC       H  209   2.839   2.874   1.825
   21EC       H  210   2.874   2.700   1.840
   22EC       O  211   1.906   3.731   3.555
   22EC       C  212   1.920   3.734   3.434
   22EC       O  213   2.039   3.756   3.371
   22EC       C  214   2.009   3.778   3.235
   22EC       C  215   1.880   3.705   3.217
   22EC       O  216   1.818   3.718   3.344
   22EC       H  217   1.999   3.885   3.218
   22EC       H  218   2.088   3.739   3.170
   22EC       H  219   1.895   3.599   3.196
   22EC       H  220   1.817   3.748   3.139
   23EC       O  221   0.101   0.300   0.069
   23EC       C  222   0.078   0.309   0.188
   23EC       O  223   0.169   0.347   0.283
   23EC       C  224   0.111   0.320   0.408
   23EC       C  225  -0.036   0.324   0.379
   23EC       O  226  -0.043   0.279   0.245
   23EC       H  227   0.144   0.220   0.440
   23EC       H  228   0.141   0.393   0.483
   23EC       H  229  -0.075   0.426   0.384
   23EC       H  230  -0.095   0.260   0.445
   24EC       O  231   1.882   1.368   1.696
   24EC       C  232   1.829   1.405   1.593
   24EC       O  233   1.886   1.398   1.469
   24EC       C  234   1.804   1.473   1.382
   24EC       C  235   1.670   1.466   1.449
   24EC       O  236   1.704   1.460   1.587
   24EC       H  237   1.843   1.575   1.377
   24EC       H  238   1.802   1.430   1.282
   24EC       H  239   1.615   1.376   1.422
   24EC       H  240   1.607   1.554   1.429
   25EC       O  241   3.106   1.749   1.552
   25EC       C  242   3.079   1.656   1.478
   25EC       O  243   3.029   1.536   1.519
   25EC       C  244   3.035   1.449   1.408
   25EC       C  245   3.031   1.543   1.292
   25EC       O  246   3.097   1.659   1.342
   25EC       H  247   3.129   1.393   1.413
   25EC       H  248   2.952   1.379   1.407
   25EC       H  249   2.929   1.569   1.264
   25EC       H  250   3.083   1.504   1.204
   26EC       O  251   3.719   3.667   0.333
   26EC       C  252   3.720   3.641   0.213
   26EC       O  253   3.734   3.517   0.161
   26EC       C  254   3.754   3.533   0.022
   26EC       C  255   3.688   3.664  -0.006
   26EC       O  256   3.707   3.736   0.115
   26EC       H  257   3.862   3.536   0.003
   26EC       H  258   3.710   3.451  -0.034
   26EC       H  259   3.580   3.653  -0.024
   26EC       H  260   3.733   3.717  -0.090
   27EC       O  261   2.831   2.348   2.457
   27EC       C  262   2.813   2.302   2.568
   27EC       O  263   2.835   2.369   2.685
   27EC       C  264   2.826   2.275   2.789
   27EC       C  265   2.738   2.169   2.730
   27EC       O  266   2.769   2.175   2.592
   27EC       H  267   2.927   2.237   2.810
   27EC       H  268   2.784   2.319   2.879
   27EC       H  269   2.632   2.192   2.744
   27EC       H  270   2.758   2.069   2.771
   28EC       O  271   1.927   0.666   1.765
   28EC       C  272   1.935   0.670   1.643
   28EC       O  273   2.001   0.767   1.573
   28EC       C  274   1.967   0.749   1.438
   28EC       C  275   1.933   0.604   1.431
   28EC       O  276   1.879   0.577   1.560
   28EC       H  277   1.880   0.813   1.415
   28EC       H  278   2.049   0.776   1.372
   28EC       H  279   2.021   0.541   1.416
   28EC       H  280   1.859   0.581   1.353
   29EC       O  281   0.835   0.557   1.735
   29EC       C  282   0.906   0.641   1.682
   29EC       O  283   1.018   0.695   1.738
   29EC       C  284   1.055   0.804   1.657
   29EC       C  285   0.999   0.767   1.524
   29EC       O  286   0.883   0.693   1.558
   29EC       H  287   1.010   0.895   1.698
   29EC       H  288   1.164   0.816   1.655
   29EC       H  289   1.067   0.703   1.467
   29EC       H  290   0.973   0.854   1.463
   30EC       O  291   1.503   3.256   2.516
   30EC       C  292   1.475   3.138   2.530
   30EC       O  293   1.499   3.065   2.642
   30EC       C  294   1.476   2.931   2.609
   30EC       C  295   1.379   2.940   2.495
   30EC       O  296   1.417   3.062   2.432
   30EC       H  297   1.571   2.886   2.580
   30EC       H  298   1.434   2.875   2.694
   30EC       H  299   1.276   2.949   2.529
   30EC       H  300   1.387   2.856   2.425
   31EC       O  301   1.381   2.694   3.205
   31EC       C  302   1.426   2.671   3.316
   31EC       O  303   1.502   2.758   3.388
   31EC       C  304   1.554   2.686   3.497
   31EC       C  305   1.454   2.576   3.515
   31EC       O  306   1.408   2.553   3.383
   31EC       H  307   1.653   2.648   3.469
   31EC       H  308   1.563   2.748   3.586
   31EC       H  309   1.369   2.607   3.577
   31EC       H  310   1.498   2.485   3.557
   32EC       O  311   2.983   1.049   2.549
   32EC       C  312   2.995   1.086   2.665
   32EC       O  313   3.079   1.030   2.756
   32EC       C  314   3.044   1.084   2.881
   32EC       C  315   2.983   1.215   2.845
   32EC       O  316   2.923   1.189   2.719
   32EC       H  317   2.973   1.016   2.930
   32EC       H  318   3.132   1.096   2.945
   32EC       H  319   3.057   1.294   2.833
   32EC       H  320   2.907   1.248   2.918
   33EC       O  321   1.666   2.310   0.460
   33EC       C  322   1.692   2.332   0.343
   33EC       O  323   1.603   2.325   0.240
   33EC       C  324   1.677   2.334   0.121
   33EC       C  325   1.800   2.408   0.163
   33EC       O  326   1.817   2.368   0.298
   33EC       H  327   1.700   2.232   0.087
   33EC       H  328   1.622   2.386   0.043
   33EC       H  329   1.785   2.517   0.161
   33EC       H  330   1.888   2.383   0.104
   34EC       O  331   1.275   3.632   2.027
   34EC       C  332   1.287   3.630   2.149
   34EC       O  333   1.232   3.721   2.234
   34EC       C  334   1.290   3.697   2.360
   34EC       C  335   1.328   3.553   2.353
   34EC       O  336   1.359   3.535   2.216
   34EC       H  337   1.377   3.763   2.372
   34EC       H  338   1.219   3.718   2.441
   34EC       H  339   1.245   3.487   2.380
   34EC       H  340   1.414   3.528   2.416
   35EC       O  341  -0.123   3.258   3.040
   35EC       C  342  -0.003   3.278   3.042
   35EC       O  343   0.077   3.284   2.931
   35EC       C  344   0.210   3.283   2.976
   35EC       C  345   0.198   3.341   3.114
   35EC       O  346   0.070   3.297   3.156
   35EC       H  347   0.246   3.180   2.977
   35EC       H  348   0.274   3.343   2.912
   35EC       H  349   0.200   3.450   3.114
   35EC       H  350   0.276   3.304   3.182
   36EC       O  351   1.137   3.018   0.554
   36EC       C  352   1.081   3.031   0.662
   36EC       O  353   0.963   2.971   0.696
   36EC       C  354   0.921   3.029   0.817
   36EC       C  355   1.050   3.075   0.878
   36EC       O  356   1.129   3.108   0.764
   36EC       H  357   0.854   3.113   0.794
   36EC       H  358   0.869   2.957   0.880
   36EC       H  359   1.100   2.996   0.934
   36EC       H  360   1.038   3.163   0.942
   37EC       O  361  -0.014   0.864   1.494
   37EC       C  362   0.046   0.763   1.528
   37EC       O  363   0.048   0.646   1.458
   37EC       C  364   0.107   0.549   1.541
   37EC       C  365   0.193   0.632   1.632
   37EC       O  366   0.120   0.753   1.643
   37EC       H  367   0.027   0.497   1.595
   37EC       H  368   0.165   0.477   1.484
   37EC       H  369   0.291   0.652   1.589
   37EC       H  370   0.206   0.586   1.731
   38EC       O  371   0.699   3.466   1.072
   38EC       C  372   0.724   3.455   0.953
   38EC       O  373   0.767   3.340   0.893
   38EC       C  374   0.808   3.375   0.763
   38EC       C  375   0.728   3.498   0.735
   38EC       O  376   0.714   3.558   0.863
   38EC       H  377   0.915   3.395   0.765
   38EC       H  378   0.787   3.295   0.692
   38EC       H  379   0.628   3.475   0.696
   38EC       H  380   0.778   3.567   0.665
   39EC       O  381   3.386   2.360   1.008
   39EC       C  382   3.425   2.404   1.115
   39EC       O  383   3.353   2.488   1.195
   39EC       C  384   3.441   2.535   1.294
   39EC       C  385   3.543   2.426   1.302
   39EC       O  386   3.547   2.377   1.169
   39EC       H  387   3.484   2.630   1.260
   39EC       H  388   3.389   2.550   1.389
   39EC       H  389   3.512   2.345   1.369
   39EC       H  390   3.642   2.462   1.333
   40EC       O  391   2.586   2.024   0.830
   40EC       C  392   2.672   1.953   0.780
   40EC       O  393   2.647   1.838   0.711
   40EC       C  394   2.771   1.775   0.692
   40EC       C  395   2.868   1.889   0.697
   40EC       O  396   2.806   1.979   0.788
   40EC       H  397   2.787   1.704   0.774
   40EC       H  398   2.775   1.722   0.597
   40EC       H  399   2.879   1.938   0.600
   40EC       H  400   2.967   1.860   0.734
   41EC       O  401   3.365   3.426   2.768
   41EC       C  402   3.388   3.406   2.650
   41EC       O  403   3.296   3.417   2.550
   41EC       C  404   3.355   3.363   2.434
   41EC       C  405   3.501   3.381   2.460
   41EC       O  406   3.510   3.369   2.601
   41EC       H  407   3.327   3.257   2.427
   41EC       H  408   3.322   3.415   2.344
   41EC       H  409   3.536   3.481   2.430
   41EC       H  410   3.563   3.305   2.410
   42EC       O  411   0.139   0.084   3.402
   42EC       C  412   0.189   0.143   3.496
   42EC       O  413   0.299   0.223   3.489
   42EC       C  414   0.339   0.250   3.621
   42EC       C  415   0.211   0.235   3.698
   42EC       O  416   0.142   0.135   3.624
   42EC       H  417   0.414   0.176   3.651
   42EC       H  418   0.381   0.350   3.630
   42EC       H  419   0.152   0.327   3.697
   42EC       H  420   0.227   0.203   3.801
   43EC       O  421   2.296   2.158   3.978
   43EC       C  422   2.311   2.105   3.869
   43EC       O  423   2.228   2.010   3.817
   43EC       C  424   2.292   1.958   3.703
   43EC       C  425   2.381   2.071   3.660
   43EC       O  426   2.414   2.134   3.783
   43EC       H  427   2.349   1.869   3.733
   43EC       H  428   2.220   1.930   3.626
   43EC       H  429   2.328   2.143   3.597
   43EC       H  430   2.471   2.037   3.609
   44EC       O  431   1.540   1.855   1.762
   44EC       C  432   1.474   1.770   1.705
   44EC       O  433   1.514   1.641   1.685
   44EC       C  434   1.423   1.583   1.595
   44EC       C  435   1.299   1.664   1.617
   44EC       O  436   1.350   1.792   1.651
   44EC       H  437   1.463   1.594   1.494
   44EC       H  438   1.407   1.477   1.617
   44EC       H  439   1.239   1.627   1.700
   44EC       H  440   1.236   1.671   1.527
   45EC       O  441   1.453   1.086   0.862
   45EC       C  442   1.430   1.134   0.972
   45EC       O  443   1.460   1.075   1.090
   45EC       C  444   1.395   1.149   1.191
   45EC       C  445   1.381   1.284   1.128
   45EC       O  446   1.367   1.254   0.990
   45EC       H  447   1.298   1.102   1.211
   45EC       H  448   1.453   1.152   1.283
   45EC       H  449   1.470   1.345   1.143
   45EC       H  450   1.294   1.339   1.165
   46EC       O  451   1.999   2.900   2.037
   46EC       C  452   1.992   2.909   2.159
   46EC       O  453   1.881   2.878   2.232
   46EC       C  454   1.904   2.925   2.362
   46EC       C  455   2.054   2.925   2.372
   46EC       O  456   2.094   2.953   2.239
   46EC       H  457   1.862   3.026   2.371
   46EC       H  458   1.858   2.860   2.437
   46EC       H  459   2.093   2.828   2.401
   46EC       H  460   2.092   3.002   2.441
   47EC       O  461   1.862   3.860   1.003
   47EC       C  462   1.879   3.739   1.002
   47EC       O  463   1.780   3.647   0.984
   47EC       C  464   1.835   3.521   1.014
   47EC       C  465   1.981   3.542   0.989
   47EC       O  466   2.000   3.679   1.021
   47EC       H  467   1.814   3.499   1.120
   47EC       H  468   1.793   3.442   0.952
   47EC       H  469   2.007   3.526   0.884
   47EC       H  470   2.045   3.478   1.051
   48EC       O  471   1.234   1.533   2.723
   48EC       C  472   1.232   1.588   2.614
   48EC       O  473   1.229   1.723   2.596
   48EC       C  474   1.203   1.745   2.460
   48EC       C  475   1.256   1.621   2.395
   48EC       O  476   1.233   1.522   2.495
   48EC       H  477   1.095   1.757   2.446
   48EC       H  478   1.254   1.835   2.423
   48EC       H  479   1.363   1.627   2.375
   48EC       H  480   1.203   1.595   2.303
   49EC       O  481   0.568   0.023   1.203
   49EC       C  482   0.564   0.021   1.081
   49EC       O  483   0.478   0.095   1.005
   49EC       C  484   0.488   0.046   0.874
   49EC       C  485   0.627  -0.010   0.870
   49EC       O  486   0.646  -0.056   1.003
   49EC       H  487   0.411  -0.030   0.859
   49EC       H  488   0.474   0.126   0.801
   49EC       H  489   0.702   0.066   0.847
   49EC       H  490   0.637  -0.093   0.799
   50EC       O  491   3.027   1.006   0.389
   50EC       C  492   3.080   1.114   0.409
   50EC       O  493   3.072   1.221   0.325
   50EC       C  494   3.165   1.316   0.371
   50EC       C  495   3.177   1.283   0.517
   50EC       O  496   3.156   1.143   0.520
   50EC       H  497   3.260   1.301   0.317
   50EC       H  498   3.130   1.418   0.354
   50EC       H  499   3.099   1.332   0.576
   50EC       H  500   3.275   1.308   0.558
   51EC       O  501   3.241   1.928   0.199
   51EC       C  502   3.309   2.022   0.236
   51EC       O  503   3.288   2.093   0.351
   51EC       C  504   3.371   2.206   0.345
   51EC       C  505   3.482   2.161   0.255
   51EC       O  506   3.417   2.070   0.167
   51EC       H  507   3.313   2.289   0.302
   51EC       H  508   3.407   2.235   0.444
   51EC       H  509   3.560   2.108   0.309
   51EC       H  510   3.527   2.244   0.198
   52EC       O  511   1.315   3.975   0.212
   52EC       C  512   1.280   3.898   0.123
   52EC       O  513   1.361   3.854   0.023
   52EC       C  514   1.278   3.790  -0.071
   52EC       C  515   1.162   3.746   0.012
   52EC       O  516   1.154   3.848   0.111
   52EC       H  517   1.250   3.863  -0.148
   52EC       H  518   1.329   3.706  -0.118
   52EC       H  519   1.179   3.650   0.061
   52EC       H  520   1.068   3.741  -0.045
   53EC       O  521   1.615   0.326   2.702
   53EC       C  522   1.572   0.434   2.740
   53EC       O  523   1.563   0.546   2.663
   53EC       C  524   1.533   0.653   2.749
   53EC       C  525   1.464   0.585   2.863
   53EC       O  526   1.527   0.458   2.867
   53EC       H  527   1.626   0.701   2.779
   53EC       H  528   1.469   0.727   2.700
   53EC       H  529   1.357   0.571   2.845
   53EC       H  530   1.477   0.638   2.958
   54EC       O  531   1.091   2.255   2.678
   54EC       C  532   1.166   2.331   2.621
   54EC       O  533   1.131   2.452   2.569
   54EC       C  534   1.239   2.497   2.491
   54EC       C  535   1.356   2.427   2.554
   54EC       O  536   1.299   2.305   2.600
   54EC       H  537   1.223   2.465   2.387
   54EC       H  538   1.249   2.605   2.494
   54EC       H  539   1.396   2.483   2.639
   54EC       H  540   1.437   2.408   2.483
   55EC       O  541   2.991   0.662   2.263
   55EC       C  542   3.065   0.583   2.206
   55EC       O  543   3.200   0.598   2.193
   55EC       C  544   3.243   0.500   2.102
   55EC       C  545   3.140   0.394   2.115
   55EC       O  546   3.022   0.467   2.147
   55EC       H  547   3.245   0.545   2.001
   55EC       H  548   3.343   0.464   2.126
   55EC       H  549   3.162   0.325   2.198
   55EC       H  550   3.125   0.336   2.023
   56EC       O  551   0.550   3.150   2.691
   56EC       C  552   0.610   3.078   2.769
   56EC       O  553   0.593   3.080   2.905
   56EC       C  554   0.696   3.001   2.960
   56EC       C  555   0.730   2.908   2.848
   56EC       O  556   0.704   2.986   2.732
   56EC       H  557   0.779   3.067   2.986
   56EC       H  558   0.662   2.949   3.049
   56EC       H  559   0.665   2.820   2.847
   56EC       H  560   0.834   2.875   2.850
   57EC       O  561   0.201   3.686   1.339
   57EC       C  562   0.113   3.733   1.269
   57EC       O  563   0.050   3.852   1.290
   57EC       C  564  -0.059   3.857   1.203
   57EC       C  565  -0.017   3.767   1.091
   57EC       O  566   0.064   3.670   1.157
   57EC       H  567  -0.148   3.819   1.255
   57EC       H  568  -0.079   3.958   1.168
   57EC       H  569   0.044   3.819   1.017
   57EC       H  570  -0.101   3.718   1.041
   58EC       O  571   1.482   3.540   2.959
   58EC       C  572   1.516   3.535   3.076
   58EC       O  573   1.468   3.616   3.174
   58EC       C  574   1.549   3.595   3.287
   58EC       C  575   1.600   3.456   3.266
   58EC       O  576   1.608   3.446   3.125
   58EC       H  577   1.629   3.670   3.287
   58EC       H  578   1.491   3.604   3.380
   58EC       H  579   1.531   3.380   3.303
   58EC       H  580   1.699   3.440   3.312
   59EC       O  581   2.560   0.240   3.034
   59EC       C  582   2.447   0.274   3.064
   59EC       O  583   2.353   0.319   2.977
   59EC       C  584   2.247   0.371   3.054
   59EC       C  585   2.260   0.295   3.183
   59EC       O  586   2.400   0.273   3.193
   59EC       H  587   2.263   0.478   3.067
   59EC       H  588   2.151   0.354   3.006
   59EC       H  589   2.209   0.199   3.179
   59EC       H  590   2.223   0.352   3.269
   60EC       O  591   0.496   3.399   0.879
   60EC       C  592   0.431   3.430   0.780
   60EC       O  593   0.364   3.343   0.700
   60EC       C  594   0.324   3.414   0.586
   60EC       C  595   0.318   3.555   0.635
   60EC       O  596   0.419   3.559   0.735
   60EC       H  597   0.401   3.401   0.509
   60EC       H  598   0.228   3.379   0.548
   60EC       H  599   0.222   3.578   0.682
   60EC       H  600   0.338   3.629   0.557
   61EC       O  601   2.905   0.533   3.001
   61EC       C  602   2.904   0.538   3.123
   61EC       O  603   2.988   0.469   3.204
   61EC       C  604   2.939   0.483   3.335
   61EC       C  605   2.864   0.612   3.329
   61EC       O  606   2.816   0.615   3.195
   61EC       H  607   2.874   0.397   3.357
   61EC       H  608   3.020   0.485   3.408
   61EC       H  609   2.929   0.698   3.345
   61EC       H  610   2.780   0.616   3.400
   62EC       O  611   2.714   2.046   1.898
   62EC       C  612   2.594   2.064   1.906
   62EC       O  613   2.525   2.082   2.022
   62EC       C  614   2.389   2.074   1.990
   62EC       C  615   2.386   2.115   1.846
   62EC       O  616   2.510   2.068   1.797
   62EC       H  617   2.355   1.971   2.005
   62EC       H  618   2.329   2.141   2.053
   62EC       H  619   2.381   2.223   1.834
   62EC       H  620   2.303   2.069   1.791
   63EC       O  621   0.828   2.606   3.403
   63EC       C  622   0.890   2.609   3.297
   63EC       O  623   0.844   2.561   3.179
   63EC       C  624   0.953   2.560   3.090
   63EC       C  625   1.042   2.667   3.145
   63EC       O  626   1.017   2.660   3.285
   63EC       H  627   1.000   2.461   3.093
   63EC       H  628   0.921   2.582   2.987
   63EC       H  629   1.014   2.766   3.109
   63EC       H  630   1.148   2.649   3.124
   64EC       O  631   0.085   3.063   1.158
   64EC       C  632   0.087   3.166   1.223
   64EC       O  633  -0.024   3.232   1.267
   64EC       C  634   0.019   3.357   1.316
   64EC       C  635   0.161   3.330   1.354
   64EC       O  636   0.202   3.231   1.261
   64EC       H  637   0.011   3.430   1.235
   64EC       H  638  -0.041   3.390   1.400
   64EC       H  639   0.169   3.289   1.455
   64EC       H  640   0.225   3.419   1.346
   65EC       O  641   2.489   2.930   0.956
   65EC       C  642   2.483   2.831   0.886
   65EC       O  643   2.584   2.740   0.870
   65EC       C  644   2.548   2.656   0.764
   65EC       C  645   2.399   2.664   0.765
   65EC       O  646   2.374   2.796   0.811
   65EC       H  647   2.591   2.696   0.672
   65EC       H  648   2.584   2.554   0.780
   65EC       H  649   2.354   2.593   0.835
   65EC       H  650   2.354   2.648   0.666
   66EC       O  651   0.642   2.455   0.673
   66EC       C  652   0.656   2.446   0.794
   66EC       O  653   0.765   2.488   0.863
   66EC       C  654   0.753   2.438   0.994
   66EC       C  655   0.605   2.421   1.010
   66EC       O  656   0.563   2.390   0.878
   66EC       H  657   0.807   2.343   1.000
   66EC       H  658   0.795   2.507   1.068
   66EC       H  659   0.556   2.514   1.042
   66EC       H  660   0.578   2.341   1.079
   67EC       O  661   2.882   2.498   0.161
   67EC       C  662   2.768   2.454   0.167
   67EC       O  663   2.736   2.326   0.200
   67EC       C  664   2.600   2.309   0.171
   67EC       C  665   2.546   2.448   0.180
   67EC       O  666   2.656   2.527   0.138
   67EC       H  667   2.591   2.267   0.070
   67EC       H  668   2.551   2.241   0.242
   67EC       H  669   2.519   2.476   0.282
   67EC       H  670   2.460   2.465   0.114
   68EC       O  671   2.309   2.421   1.290
   68EC       C  672   2.278   2.521   1.353
   68EC       O  673   2.364   2.618   1.394
   68EC       C  674   2.293   2.700   1.483
   68EC       C  675   2.151   2.682   1.440
   68EC       O  676   2.149   2.548   1.392
   68EC       H  677   2.310   2.664   1.585
   68EC       H  678   2.325   2.804   1.476
   68EC       H  679   2.124   2.749   1.358
   68EC       H  680   2.079   2.695   1.521
   69EC       O  681   1.593   3.349   1.720
   69EC       C  682   1.641   3.339   1.832
   69EC       O  683   1.733   3.245   1.869
   69EC       C  684   1.743   3.251   2.009
   69EC       C  685   1.703   3.392   2.039
   69EC       O  686   1.608   3.421   1.937
   69EC       H  687   1.674   3.178   2.052
   69EC       H  688   1.845   3.230   2.042
   69EC       H  689   1.786   3.462   2.031
   69EC       H  690   1.657   3.403   2.138
   70EC       O  691   0.893   2.443   2.092
   70EC       C  692   0.860   2.560   2.097
   70EC       O  693   0.941   2.666   2.070
   70EC       C  694   0.873   2.782   2.111
   70EC       C  695   0.730   2.741   2.103
   70EC       O  696   0.734   2.602   2.133
   70EC       H  697   0.904   2.805   2.214
   70EC       H  698   0.896   2.867   2.047
   70EC       H  699   0.689   2.754   2.002
   70EC       H  700   0.666   2.793   2.175
   71EC       O  701   2.984   0.806   0.642
   71EC       C  702   2.914   0.895   0.689
   71EC       O  703   2.778   0.896   0.686
   71EC       C  704   2.738   1.025   0.727
   71EC       C  705   2.853   1.071   0.811
   71EC       O  706   2.964   1.007   0.750
   71EC       H  707   2.724   1.087   0.637
   71EC       H  708   2.644   1.022   0.783
   71EC       H  709   2.844   1.036   0.914
   71EC       H  710   2.866   1.179   0.810
   72EC       O  711   2.900   3.325   0.619
   72EC       C  712   2.859   3.231   0.686
   72EC       O  713   2.820   3.111   0.635
   72EC       C  714   2.757   3.041   0.740
   72EC       C  715   2.818   3.102   0.862
   72EC       O  716   2.844   3.235   0.822
   72EC       H  717   2.649   3.060   0.734
   72EC       H  718   2.775   2.934   0.733
   72EC       H  719   2.913   3.054   0.889
   72EC       H  720   2.752   3.100   0.949
   73EC       O  721   0.341   1.365   3.495
   73EC       C  722   0.338   1.375   3.617
   73EC       O  723   0.240   1.438   3.687
   73EC       C  724   0.286   1.449   3.820
   73EC       C  725   0.382   1.335   3.831
   73EC       O  726   0.435   1.324   3.700
   73EC       H  727   0.335   1.546   3.832
   73EC       H  728   0.204   1.441   3.892
   73EC       H  729   0.332   1.241   3.857
   73EC       H  730   0.463   1.353   3.904
   74EC       O  731   1.470   0.703   1.690
   74EC       C  732   1.509   0.725   1.577
   74EC       O  733   1.539   0.849   1.528
   74EC       C  734   1.556   0.835   1.389
   74EC       C  735   1.595   0.691   1.374
   74EC       O  736   1.526   0.628   1.482
   74EC       H  737   1.460   0.857   1.340
   74EC       H  738   1.632   0.903   1.351
   74EC       H  739   1.702   0.676   1.388
   74EC       H  740   1.564   0.648   1.278
   75EC       O  741   2.786   2.869   3.614
   75EC       C  742   2.892   2.886   3.555
   75EC       O  743   2.953   2.793   3.477
   75EC       C  744   3.082   2.842   3.449
   75EC       C  745   3.065   2.990   3.462
   75EC       O  746   2.965   3.002   3.561
   75EC       H  747   3.152   2.801   3.524
   75EC       H  748   3.116   2.812   3.349
   75EC       H  749   3.029   3.035   3.369
   75EC       H  750   3.157   3.041   3.493
   76EC       O  751   1.001   2.735   1.117
   76EC       C  752   0.889   2.774   1.144
   76EC       O  753   0.778   2.754   1.066
   76EC       C  754   0.676   2.835   1.119
   76EC       C  755   0.716   2.850   1.262
   76EC       O  756   0.858   2.846   1.256
   76EC       H  757   0.677   2.931   1.066
   76EC       H  758   0.578   2.788   1.108
   76EC       H  759   0.681   2.767   1.324
   76EC       H  760   0.682   2.944   1.307
   77EC       O  761   2.196   0.841   3.527
   77EC       C  762   2.148   0.732   3.501
   77EC       O  763   2.214   0.629   3.441
   77EC       C  764   2.118   0.532   3.407
   77EC       C  765   2.009   0.558   3.506
   77EC       O  766   2.018   0.698   3.528
   77EC       H  767   2.085   0.550   3.304
   77EC       H  768   2.158   0.431   3.415
   77EC       H  769   2.027   0.506   3.601
   77EC       H  770   1.910   0.531   3.469
   78EC       O  771   3.589   0.774   2.376
   78EC       C  772   3.584   0.790   2.497
   78EC       O  773   3.689   0.826   2.575
   78EC       C  774   3.649   0.808   2.708
   78EC       C  775   3.500   0.821   2.700
   78EC       O  776   3.471   0.771   2.571
   78EC       H  777   3.680   0.708   2.741
   78EC       H  778   3.694   0.883   2.774
   78EC       H  779   3.468   0.926   2.706
   78EC       H  780   3.448   0.764   2.777
   79EC       O  781   3.174   3.479   3.121
   79EC       C  782   3.082   3.543   3.168
   79EC       O  783   3.068   3.678   3.158
   79EC       C  784   2.964   3.715   3.245
   79EC       C  785   2.882   3.591   3.254
   79EC       O  786   2.978   3.488   3.239
   79EC       H  787   3.008   3.743   3.342
   79EC       H  788   2.908   3.800   3.207
   79EC       H  789   2.810   3.584   3.172
   79EC       H  790   2.829   3.580   3.349
   80EC       O  791   1.037   3.465   1.885
   80EC       C  792   0.988   3.554   1.818
   80EC       O  793   1.058   3.654   1.758
   80EC       C  794   0.964   3.748   1.712
   80EC       C  795   0.841   3.666   1.694
   80EC       O  796   0.854   3.567   1.795
   80EC       H  797   0.952   3.825   1.789
   80EC       H  798   0.996   3.795   1.619
   80EC       H  799   0.837   3.617   1.597
   80EC       H  800   0.748   3.723   1.709
   81EC       O  801   2.666   0.618   0.575
   81EC       C  802   2.552   0.653   0.601
   81EC       O  803   2.499   0.774   0.566
   81EC       C  804   2.377   0.786   0.634
   81EC       C  805   2.337   0.643   0.657
   81EC       O  806   2.462   0.577   0.671
   81EC       H  807   2.395   0.839   0.728
   81EC       H  808   2.303   0.840   0.575
   81EC       H  809   2.284   0.601   0.572
   81EC       H  810   2.277   0.629   0.747
   82EC       O  811   3.623   3.055   0.246
   82EC       C  812   3.598   2.990   0.347
   82EC       O  813   3.666   2.999   0.464
   82EC       C  814   3.622   2.892   0.545
   82EC       C  815   3.485   2.865   0.492
   82EC       O  816   3.496   2.898   0.355
   82EC       H  817   3.690   2.808   0.530
   82EC       H  818   3.621   2.920   0.650
   82EC       H  819   3.410   2.930   0.538
   82EC       H  820   3.454   2.761   0.504
   83EC       O  821   2.594   3.228   0.222
   83EC       C  822   2.558   3.333   0.273
   83EC       O  823   2.634   3.409   0.357
   83EC       C  824   2.549   3.507   0.412
   83EC       C  825   2.442   3.520   0.308
   83EC       O  826   2.434   3.389   0.253
   83EC       H  827   2.510   3.469   0.507
   83EC       H  828   2.601   3.601   0.429
   83EC       H  829   2.469   3.590   0.229
   83EC       H  830   2.345   3.549   0.350
   84EC       O  831   2.044   1.092   2.287
   84EC       C  832   2.005   1.111   2.173
   84EC       O  833   1.882   1.075   2.126
   84EC       C  834   1.885   1.090   1.987
   84EC       C  835   1.991   1.194   1.967
   84EC       O  836   2.080   1.169   2.075
   84EC       H  837   1.912   0.994   1.942
   84EC       H  838   1.788   1.122   1.948
   84EC       H  839   1.951   1.295   1.976
   84EC       H  840   2.043   1.184   1.871
   85EC       O  841   2.919   1.259   2.458
   85EC       C  842   2.994   1.324   2.386
   85EC       O  843   3.097   1.401   2.431
   85EC       C  844   3.142   1.477   2.321
   85EC       C  845   3.103   1.392   2.205
   85EC       O  846   2.985   1.327   2.250
   85EC       H  847   3.089   1.573   2.322
   85EC       H  848   3.249   1.494   2.326
   85EC       H  849   3.178   1.316   2.182
   85EC       H  850   3.083   1.450   2.114
   86EC       O  851   0.434   2.472   2.139
   86EC       C  852   0.372   2.511   2.237
   86EC       O  853   0.370   2.447   2.358
   86EC       C  854   0.268   2.508   2.434
   86EC       C  855   0.260   2.645   2.374
   86EC       O  856   0.294   2.623   2.238
   86EC       H  857   0.176   2.451   2.420
   86EC       H  858   0.294   2.510   2.540
   86EC       H  859   0.332   2.714   2.419
   86EC       H  860   0.160   2.689   2.383
   87EC       O  861   1.800   0.101   0.390
   87EC       C  862   1.811   0.181   0.481
   87EC       O  863   1.746   0.172   0.601
   87EC       C  864   1.766   0.294   0.667
   87EC       C  865   1.894   0.345   0.608
   87EC       O  866   1.889   0.293   0.475
   87EC       H  867   1.681   0.360   0.645
   87EC       H  868   1.773   0.281   0.775
   87EC       H  869   1.982   0.304   0.659
   87EC       H  870   1.900   0.454   0.606
   88EC       O  871   2.779   1.357   3.506
   88EC       C  872   2.843   1.260   3.469
   88EC       O  873   2.880   1.156   3.549
   88EC       C  874   2.972   1.078   3.476
   88EC       C  875   2.935   1.109   3.334
   88EC       O  876   2.888   1.242   3.341
   88EC       H  877   3.073   1.112   3.501
   88EC       H  878   2.962   0.972   3.500
   88EC       H  879   2.854   1.044   3.298
   88EC       H  880   3.020   1.101   3.266
   89EC       O  881   2.395   2.580   3.305
   89EC       C  882   2.455   2.601   3.201
   89EC       O  883   2.591   2.609   3.190
   89EC       C  884   2.618   2.658   3.061
   89EC       C  885   2.498   2.616   2.983
   89EC       O  886   2.394   2.621   3.080
   89EC       H  887   2.629   2.767   3.067
   89EC       H  888   2.710   2.615   3.021
   89EC       H  889   2.507   2.514   2.945
   89EC       H  890   2.475   2.684   2.900
   90EC       O  891   0.987   1.274   3.026
   90EC       C  892   0.912   1.319   3.111
   90EC       O  893   0.932   1.311   3.245
   90EC       C  894   0.812   1.351   3.307
   90EC       C  895   0.750   1.440   3.204
   90EC       O  896   0.794   1.382   3.081
   90EC       H  897   0.752   1.262   3.327
   90EC       H  898   0.831   1.404   3.400
   90EC       H  899   0.786   1.542   3.210
   90EC       H  900   0.640   1.440   3.208
   91EC       O  901   2.906   3.050   1.513
   91EC       C  902   2.857   3.155   1.551
   91EC       O  903   2.916   3.241   1.638
   91EC       C  904   2.818   3.336   1.675
   91EC       C  905   2.725   3.334   1.558
   91EC       O  906   2.734   3.200   1.512
   91EC       H  907   2.770   3.301   1.767
   91EC       H  908   2.862   3.434   1.692
   91EC       H  909   2.758   3.401   1.478
   91EC       H  910   2.622   3.359   1.585
   92EC       O  911   3.546   1.317   2.141
   92EC       C  912   3.484   1.407   2.086
   92EC       O  913   3.483   1.430   1.952
   92EC       C  914   3.422   1.555   1.932
   92EC       C  915   3.334   1.568   2.052
   92EC       O  916   3.407   1.498   2.152
   92EC       H  917   3.500   1.632   1.928
   92EC       H  918   3.365   1.557   1.839
   92EC       H  919   3.237   1.519   2.038
   92EC       H  920   3.318   1.672   2.082
   93EC       O  921   2.300   0.445   2.468
   93EC       C  922   2.351   0.429   2.358
   93EC       O  923   2.283   0.428   2.240
   93EC       C  924   2.372   0.381   2.142
   93EC       C  925   2.506   0.417   2.199
   93EC       O  926   2.485   0.406   2.339
   93EC       H  927   2.359   0.273   2.132
   93EC       H  928   2.355   0.429   2.046
   93EC       H  929   2.535   0.520   2.175
   93EC       H  930   2.586   0.349   2.167
   94EC       O  931   1.924   2.432   2.496
   94EC       C  932   2.011   2.359   2.540
   94EC       O  933   2.046   2.239   2.486
   94EC       C  934   2.131   2.176   2.578
   94EC       C  935   2.190   2.291   2.653
   94EC       O  936   2.086   2.387   2.651
   94EC       H  937   2.071   2.111   2.642
   94EC       H  938   2.208   2.116   2.528
   94EC       H  939   2.278   2.333   2.602
   94EC       H  940   2.218   2.265   2.756
   95EC       O  941   2.380   3.305   2.792
   95EC       C  942   2.345   3.422   2.796
   95EC       O  943   2.314   3.499   2.687
   95EC       C  944   2.304   3.632   2.732
   95EC       C  945   2.269   3.615   2.877
   95EC       O  946   2.334   3.494   2.912
   95EC       H  947   2.402   3.680   2.718
   95EC       H  948   2.228   3.687   2.677
   95EC       H  949   2.161   3.603   2.892
   95EC       H  950   2.305   3.698   2.939
   96EC       O  951   3.886   2.954   1.700
   96EC       C  952   3.802   3.028   1.650
   96EC       O  953   3.685   3.065   1.709
   96EC       C  954   3.608   3.128   1.610
   96EC       C  955   3.711   3.179   1.514
   96EC       O  956   3.815   3.082   1.525
   96EC       H  957   3.543   3.052   1.564
   96EC       H  958   3.547   3.208   1.651
   96EC       H  959   3.750   3.276   1.544
   96EC       H  960   3.675   3.185   1.411
   97EC       O  961   1.354   0.731   3.779
   97EC       C  962   1.272   0.744   3.689
   97EC       O  963   1.290   0.819   3.577
   97EC       C  964   1.165   0.827   3.513
   97EC       C  965   1.095   0.703   3.560
   97EC       O  966   1.149   0.684   3.690
   97EC       H  967   1.114   0.918   3.547
   97EC       H  968   1.175   0.830   3.404
   97EC       H  969   1.120   0.616   3.498
   97EC       H  970   0.986   0.714   3.564
   98EC       O  971   1.415   2.556   1.961
   98EC       C  972   1.536   2.548   1.948
   98EC       O  973   1.617   2.465   2.020
   98EC       C  974   1.749   2.503   1.992
   98EC       C  975   1.738   2.565   1.857
   98EC       O  976   1.608   2.621   1.858
   98EC       H  977   1.782   2.575   2.068
   98EC       H  978   1.817   2.417   1.994
   98EC       H  979   1.744   2.490   1.777
   98EC       H  980   1.814   2.642   1.838
   99EC       O  981   1.355   1.084   2.303
   99EC       C  982   1.318   1.127   2.411
   99EC       O  983   1.189   1.157   2.442
   99EC       C  984   1.191   1.226   2.565
   99EC       C  985   1.317   1.175   2.628
   99EC       O  986   1.401   1.151   2.517
   99EC       H  987   1.195   1.333   2.544
   99EC       H  988   1.102   1.203   2.624
   99EC       H  989   1.300   1.081   2.682
   99EC       H  990   1.362   1.247   2.696
  100EC       O  991   1.762   3.035   0.506
  100EC       C  992   1.843   2.955   0.462
  100EC       O  993   1.882   2.841   0.526
  100EC       C  994   1.993   2.791   0.455
  100EC       C  995   1.973   2.846   0.318
  100EC       O  996   1.907   2.969   0.342
  100EC       H  997   2.084   2.830   0.502
  100EC       H  998   1.996   2.682   0.457
  100EC       H  999   1.907   2.782   0.258
  100EC       H 1000   2.067   2.862   0.264
  101EC       O 1001   1.321   1.920   1.209
  101EC       C 1002   1.347   1.849   1.114
  101EC       O 1003   1.425   1.884   1.009
  101EC       C 1004   1.409   1.785   0.911
  101EC       C 1005   1.370   1.665   0.991
  101EC       O 1006   1.298   1.721   1.099
  101EC       H 1007   1.330   1.817   0.842
  101EC       H 1008   1.502   1.768   0.855
  101EC       H 1009   1.456   1.611   1.030
  101EC       H 1010   1.306   1.595   0.935
  102EC       O 1011   2.368   3.387   2.548
  102EC       C 1012   2.445   3.474   2.512
  102EC       O 1013   2.522   3.469   2.399
  102EC       C 1014   2.613   3.575   2.407
  102EC       C 1015   2.543   3.673   2.495
  102EC       O 1016   2.467   3.590   2.581
  102EC       H 1017   2.706   3.538   2.452
  102EC       H 1018   2.635   3.617   2.308
  102EC       H 1019   2.475   3.738   2.439
  102EC       H 1020   2.612   3.736   2.553
  103EC       O 1021   3.022   2.221   1.216
  103EC       C 1022   2.926   2.207   1.289
  103EC       O 1023   2.856   2.091   1.306
  103EC       C 1024   2.739   2.122   1.377
  103EC       C 1025   2.778   2.246   1.452
  103EC       O 1026   2.872   2.308   1.364
  103EC       H 1027   2.659   2.141   1.305
  103EC       H 1028   2.710   2.041   1.444
  103EC       H 1029   2.828   2.223   1.546
  103EC       H 1030   2.694   2.313   1.471
  104EC       O 1031   1.267   3.232   3.881
  104EC       C 1032   1.371   3.268   3.827
  104EC       O 1033   1.493   3.212   3.849
  104EC       C 1034   1.588   3.296   3.789
  104EC       C 1035   1.509   3.365   3.682
  104EC       O 1036   1.379   3.372   3.738
  104EC       H 1037   1.625   3.366   3.865
  104EC       H 1038   1.672   3.240   3.749
  104EC       H 1039   1.505   3.306   3.590
  104EC       H 1040   1.546   3.465   3.659
  105EC       O 1041   3.386   1.918   0.888
  105EC       C 1042   3.283   1.976   0.857
  105EC       O 1043   3.216   2.062   0.938
  105EC       C 1044   3.092   2.088   0.876
  105EC       C 1045   3.122   2.063   0.732
  105EC       O 1046   3.221   1.962   0.736
  105EC       H 1047   3.018   2.018   0.916
  105EC       H 1048   3.059   2.190   0.894
  105EC       H 1049   3.163   2.151   0.682
  105EC       H 1050   3.034   2.029   0.675
  106EC       O 1051   2.303   3.067   0.905
  106EC       C 1052   2.267   3.038   0.792
  106EC       O 1053   2.137   3.021   0.754
  106EC       C 1054   2.139   2.965   0.625
  106EC       C 1055   2.271   3.012   0.571
  106EC       O 1056   2.353   3.018   0.687
  106EC       H 1057   2.134   2.856   0.635
  106EC       H 1058   2.055   3.000   0.565
  106EC       H 1059   2.264   3.111   0.527
  106EC       H 1060   2.314   2.942   0.498
  107EC       O 1061   0.517   2.565   1.370
  107EC       C 1062   0.471   2.465   1.318
  107EC       O 1063   0.455   2.345   1.381
  107EC       C 1064   0.423   2.251   1.282
  107EC       C 1065   0.360   2.335   1.175
  107EC       O 1066   0.429   2.459   1.188
  107EC       H 1067   0.515   2.203   1.248
  107EC       H 1068   0.354   2.175   1.319
  107EC       H 1069   0.254   2.352   1.193
  107EC       H 1070   0.374   2.294   1.074
  108EC       O 1071   2.761   1.091   2.382
  108EC       C 1072   2.754   1.097   2.260
  108EC       O 1073   2.696   1.002   2.181
  108EC       C 1074   2.731   1.033   2.048
  108EC       C 1075   2.757   1.180   2.054
  108EC       O 1076   2.807   1.199   2.185
  108EC       H 1077   2.821   0.976   2.022
  108EC       H 1078   2.651   1.008   1.978
  108EC       H 1079   2.665   1.239   2.042
  108EC       H 1080   2.830   1.214   1.980
  109EC       O 1081   1.127   2.805   1.439
  109EC       C 1082   1.228   2.774   1.500
  109EC       O 1083   1.233   2.746   1.633
  109EC       C 1084   1.369   2.740   1.669
  109EC       C 1085   1.435   2.704   1.540
  109EC       O 1086   1.352   2.765   1.443
  109EC       H 1087   1.399   2.839   1.705
  109EC       H 1088   1.387   2.666   1.747
  109EC       H 1089   1.436   2.596   1.523
  109EC       H 1090   1.538   2.742   1.532
  110EC       O 1091   0.928   1.351   2.146
  110EC       C 1092   0.933   1.362   2.024
  110EC       O 1093   0.834   1.414   1.947
  110EC       C 1094   0.867   1.387   1.813
  110EC       C 1095   1.016   1.375   1.818
  110EC       O 1096   1.040   1.322   1.948
  110EC       H 1097   0.819   1.293   1.784
  110EC       H 1098   0.835   1.467   1.746
  110EC       H 1099   1.066   1.472   1.810
  110EC       H 1100   1.056   1.307   1.742
  111EC       O 1101   3.708   3.108   3.307
  111EC       C 1102   3.747   2.996   3.336
  111EC       O 1103   3.705   2.882   3.275
  111EC       C 1104   3.753   2.775   3.352
  111EC       C 1105   3.873   2.833   3.420
  111EC       O 1106   3.837   2.970   3.436
  111EC       H 1107   3.675   2.746   3.424
  111EC       H 1108   3.779   2.689   3.291
  111EC       H 1109   3.963   2.827   3.358
  111EC       H 1110   3.894   2.788   3.518
  112EC       O 1111   1.401   1.091   0.677
  112EC       C 1112   1.443   1.081   0.563
  112EC       O 1113   1.542   1.158   0.510
  112EC       C 1114   1.544   1.133   0.372
  112EC       C 1115   1.486   0.996   0.362
  112EC       O 1116   1.395   0.992   0.472
  112EC       H 1117   1.481   1.208   0.323
  112EC       H 1118   1.645   1.138   0.332
  112EC       H 1119   1.562   0.918   0.376
  112EC       H 1120   1.433   0.978   0.268
  113EC       O 1121   2.163   3.789   2.003
  113EC       C 1122   2.084   3.793   2.096
  113EC       O 1123   2.058   3.904   2.171
  113EC       C 1124   1.981   3.862   2.281
  113EC       C 1125   1.914   3.738   2.229
  113EC       O 1126   2.010   3.686   2.138
  113EC       H 1127   2.049   3.840   2.364
  113EC       H 1128   1.909   3.938   2.311
  113EC       H 1129   1.822   3.761   2.174
  113EC       H 1130   1.892   3.665   2.308
  114EC       O 1131   1.274   2.259   1.884
  114EC       C 1132   1.269   2.257   1.762
  114EC       O 1133   1.318   2.156   1.685
  114EC       C 1134   1.315   2.202   1.552
  114EC       C 1135   1.206   2.304   1.554
  114EC       O 1136   1.214   2.356   1.686
  114EC       H 1137   1.412   2.246   1.528
  114EC       H 1138   1.294   2.121   1.482
  114EC       H 1139   1.107   2.259   1.540
  114EC       H 1140   1.220   2.383   1.480
  115EC       O 1141   1.813   1.273   2.822
  115EC       C 1142   1.735   1.260   2.915
  115EC       O 1143   1.761   1.293   3.044
  115EC       C 1144   1.656   1.241   3.122
  115EC       C 1145   1.543   1.234   3.024
  115EC       O 1146   1.609   1.208   2.901
  115EC       H 1147   1.686   1.142   3.158
  115EC       H 1148   1.634   1.305   3.207
  115EC       H 1149   1.489   1.328   3.017
  115EC       H 1150   1.472   1.153   3.047
  116EC       O 1151   0.594   3.559   0.224
  116EC       C 1152   0.576   3.452   0.168
  116EC       O 1153   0.631   3.416   0.049
  116EC       C 1154   0.566   3.299   0.007
  116EC       C 1155   0.519   3.239   0.136
  116EC       O 1156   0.494   3.353   0.217
  116EC       H 1157   0.482   3.327  -0.058
  116EC       H 1158   0.633   3.232  -0.047
  116EC       H 1159   0.596   3.178   0.184
  116EC       H 1160   0.428   3.179   0.125
  117EC       O 1161   2.047   0.539  -0.005
  117EC       C 1162   1.934   0.519   0.035
  117EC       O 1163   1.871   0.398   0.035
  117EC       C 1164   1.736   0.422   0.065
  117EC       C 1165   1.741   0.550   0.142
  117EC       O 1166   1.852   0.617   0.085
  117EC       H 1167   1.681   0.433  -0.029
  117EC       H 1168   1.693   0.341   0.123
  117EC       H 1169   1.760   0.533   0.249
  117EC       H 1170   1.650   0.610   0.132
  118EC       O 1171   3.552   0.264   2.594
  118EC       C 1172   3.620   0.178   2.647
  118EC       O 1173   3.705   0.199   2.752
  118EC       C 1174   3.781   0.082   2.767
  118EC       C 1175   3.691  -0.023   2.710
  118EC       O 1176   3.620   0.047   2.609
  118EC       H 1177   3.874   0.093   2.710
  118EC       H 1178   3.805   0.064   2.872
  118EC       H 1179   3.620  -0.061   2.784
  118EC       H 1180   3.746  -0.108   2.667
  119EC       O 1181   0.124   2.467   1.409
  119EC       C 1182   0.095   2.547   1.497
  119EC       O 1183   0.186   2.613   1.574
  119EC       C 1184   0.114   2.675   1.678
  119EC       C 1185  -0.022   2.691   1.619
  119EC       O 1186  -0.033   2.579   1.532
  119EC       H 1187   0.115   2.608   1.764
  119EC       H 1188   0.159   2.770   1.706
  119EC       H 1189  -0.031   2.783   1.560
  119EC       H 1190  -0.102   2.689   1.694
  120EC       O 1191   0.567   0.169   2.010
  120EC       C 1192   0.574   0.168   2.132
  120EC       O 1193   0.627   0.067   2.205
  120EC       C 1194   0.595   0.092   2.340
  120EC       C 1195   0.577   0.241   2.342
  120EC       O 1196   0.528   0.269   2.212
  120EC       H 1197   0.502   0.039   2.363
  120EC       H 1198   0.674   0.059   2.407
  120EC       H 1199   0.672   0.293   2.356
  120EC       H 1200   0.506   0.275   2.418
  121EC       O 1201   1.311   0.233   3.523
  121EC       C 1202   1.430   0.240   3.496
  121EC       O 1203   1.522   0.311   3.567
  121EC       C 1204   1.640   0.313   3.490
  121EC       C 1205   1.627   0.189   3.407
  121EC       O 1206   1.487   0.176   3.389
  121EC       H 1207   1.640   0.404   3.429
  121EC       H 1208   1.729   0.312   3.553
  121EC       H 1209   1.664   0.100   3.460
  121EC       H 1210   1.678   0.197   3.310
  122EC       O 1211   2.203   2.941   1.575
  122EC       C 1212   2.206   2.943   1.453
  122EC       O 1213   2.096   2.929   1.373
  122EC       C 1214   2.144   2.913   1.241
  122EC       C 1215   2.276   2.982   1.245
  122EC       O 1216   2.320   2.960   1.379
  122EC       H 1217   2.154   2.806   1.221
  122EC       H 1218   2.076   2.957   1.168
  122EC       H 1219   2.267   3.090   1.228
  122EC       H 1220   2.349   2.940   1.174
  123EC       O 1221   3.017   2.399   1.457
  123EC       C 1222   3.037   2.505   1.401
  123EC       O 1223   3.032   2.627   1.462
  123EC       C 1224   3.036   2.724   1.360
  123EC       C 1225   3.105   2.652   1.248
  123EC       O 1226   3.066   2.517   1.267
  123EC       H 1227   2.933   2.751   1.334
  123EC       H 1228   3.090   2.813   1.391
  123EC       H 1229   3.214   2.659   1.257
  123EC       H 1230   3.075   2.688   1.149
  124EC       O 1231   2.619   3.197   2.393
  124EC       C 1232   2.607   3.214   2.272
  124EC       O 1233   2.640   3.328   2.206
  124EC       C 1234   2.588   3.316   2.076
  124EC       C 1235   2.582   3.167   2.056
  124EC       O 1236   2.556   3.119   2.187
  124EC       H 1237   2.489   3.362   2.073
  124EC       H 1238   2.652   3.364   2.002
  124EC       H 1239   2.677   3.126   2.021
  124EC       H 1240   2.502   3.137   1.988
  125EC       O 1241   0.317   2.222   2.411
  125EC       C 1242   0.256   2.245   2.514
  125EC       O 1243   0.313   2.275   2.634
  125EC       C 1244   0.211   2.269   2.731
  125EC       C 1245   0.088   2.297   2.651
  125EC       O 1246   0.119   2.242   2.524
  125EC       H 1247   0.210   2.169   2.774
  125EC       H 1248   0.226   2.342   2.810
  125EC       H 1249   0.070   2.405   2.639
  125EC       H 1250  -0.002   2.250   2.692
  126EC       O 1251   1.030   3.415   0.626
  126EC       C 1252   0.980   3.413   0.515
  126EC       O 1253   0.914   3.306   0.461
  126EC       C 1254   0.894   3.335   0.325
  126EC       C 1255   0.894   3.485   0.322
  126EC       O 1256   0.984   3.518   0.428
  126EC       H 1257   0.977   3.292   0.268
  126EC       H 1258   0.800   3.293   0.288
  126EC       H 1259   0.796   3.527   0.345
  126EC       H 1260   0.930   3.526   0.227
  127EC       O 1261   0.224   3.528   2.132
  127EC       C 1262   0.223   3.522   2.254
  127EC       O 1263   0.236   3.629   2.337
  127EC       C 1264   0.255   3.579   2.466
  127EC       C 1265   0.191   3.444   2.459
  127EC       O 1266   0.212   3.405   2.324
  127EC       H 1267   0.363   3.572   2.485
  127EC       H 1268   0.210   3.643   2.542
  127EC       H 1269   0.083   3.449   2.479
  127EC       H 1270   0.236   3.371   2.528
  128EC       O 1271   2.100   1.138   0.736
  128EC       C 1272   2.120   1.214   0.643
  128EC       O 1273   2.213   1.314   0.643
  128EC       C 1274   2.188   1.392   0.528
  128EC       C 1275   2.121   1.295   0.436
  128EC       O 1276   2.052   1.209   0.524
  128EC       H 1277   2.122   1.475   0.557
  128EC       H 1278   2.280   1.432   0.487
  128EC       H 1279   2.194   1.237   0.378
  128EC       H 1280   2.052   1.344   0.366
  129EC       O 1281   3.700   3.520   3.065
  129EC       C 1282   3.632   3.606   3.118
  129EC       O 1283   3.547   3.689   3.053
  129EC       C 1284   3.507   3.788   3.145
  129EC       C 1285   3.524   3.720   3.276
  129EC       O 1286   3.633   3.632   3.253
  129EC       H 1287   3.574   3.874   3.134
  129EC       H 1288   3.404   3.820   3.127
  129EC       H 1289   3.436   3.661   3.304
  129EC       H 1290   3.547   3.789   3.358
  130EC       O 1291   2.317   3.763   0.735
  130EC       C 1292   2.312   3.762   0.857
  130EC       O 1293   2.291   3.872   0.935
  130EC       C 1294   2.318   3.834   1.067
  130EC       C 1295   2.293   3.687   1.065
  130EC       O 1296   2.329   3.650   0.933
  130EC       H 1297   2.423   3.858   1.090
  130EC       H 1298   2.253   3.886   1.138
  130EC       H 1299   2.187   3.663   1.081
  130EC       H 1300   2.353   3.632   1.139
  131EC       O 1301   3.471   1.810   0.280
  131EC       C 1302   3.414   1.775   0.178
  131EC       O 1303   3.375   1.647   0.151
  131EC       C 1304   3.337   1.644   0.016
  131EC       C 1305   3.296   1.786  -0.010
  131EC       O 1306   3.382   1.860   0.076
  131EC       H 1307   3.423   1.614  -0.044
  131EC       H 1308   3.255   1.574  -0.001
  131EC       H 1309   3.192   1.805   0.018
  131EC       H 1310   3.311   1.816  -0.114
  132EC       O 1311   3.229   1.432   3.232
  132EC       C 1312   3.193   1.462   3.344
  132EC       O 1313   3.206   1.382   3.454
  132EC       C 1314   3.130   1.442   3.557
  132EC       C 1315   3.128   1.586   3.517
  132EC       O 1316   3.132   1.580   3.375
  132EC       H 1317   3.030   1.397   3.556
  132EC       H 1318   3.176   1.427   3.654
  132EC       H 1319   3.217   1.640   3.552
  132EC       H 1320   3.038   1.639   3.551
  133EC       O 1321   0.480   2.909   3.580
  133EC       C 1322   0.533   2.827   3.654
  133EC       O 1323   0.621   2.732   3.614
  133EC       C 1324   0.639   2.644   3.723
  133EC       C 1325   0.607   2.731   3.841
  133EC       O 1326   0.510   2.820   3.789
  133EC       H 1327   0.569   2.561   3.713
  133EC       H 1328   0.741   2.605   3.727
  133EC       H 1329   0.694   2.789   3.874
  133EC       H 1330   0.567   2.675   3.926
  134EC       O 1331   0.984   2.352   3.218
  134EC       C 1332   0.989   2.259   3.139
  134EC       O 1333   0.997   2.128   3.174
  134EC       C 1334   1.025   2.056   3.056
  134EC       C 1335   0.969   2.145   2.949
  134EC       O 1336   0.987   2.275   3.003
  134EC       H 1337   1.133   2.045   3.047
  134EC       H 1338   0.978   1.958   3.057
  134EC       H 1339   0.862   2.128   2.933
  134EC       H 1340   1.021   2.135   2.853
  135EC       O 1341   1.275   0.310   0.596
  135EC       C 1342   1.156   0.306   0.570
  135EC       O 1343   1.099   0.351   0.455
  135EC       C 1344   0.960   0.350   0.474
  135EC       C 1345   0.942   0.245   0.579
  135EC       O 1346   1.062   0.255   0.655
  135EC       H 1347   0.930   0.450   0.509
  135EC       H 1348   0.907   0.327   0.383
  135EC       H 1349   0.935   0.145   0.537
  135EC       H 1350   0.854   0.263   0.643
  136EC       O 1351   2.849   2.071   2.161
  136EC       C 1352   2.745   2.127   2.190
  136EC       O 1353   2.689   2.130   2.314
  136EC       C 1354   2.559   2.181   2.300
  136EC       C 1355   2.569   2.263   2.176
  136EC       O 1356   2.667   2.193   2.099
  136EC       H 1357   2.490   2.097   2.289
  136EC       H 1358   2.530   2.240   2.387
  136EC       H 1359   2.606   2.364   2.196
  136EC       H 1360   2.474   2.269   2.121
  137EC       O 1361   3.036   0.120   1.565
  137EC       C 1362   3.043   0.124   1.443
  137EC       O 1363   3.097   0.226   1.371
  137EC       C 1364   3.063   0.203   1.236
  137EC       C 1365   3.044   0.055   1.231
  137EC       O 1366   2.995   0.025   1.361
  137EC       H 1367   2.971   0.258   1.214
  137EC       H 1368   3.142   0.237   1.169
  137EC       H 1369   3.138   0.002   1.215
  137EC       H 1370   2.972   0.024   1.155
  138EC       O 1371   0.208   0.651   1.022
  138EC       C 1372   0.139   0.750   1.006
  138EC       O 1373   0.006   0.757   1.035
  138EC       C 1374  -0.042   0.877   0.979
  138EC       C 1375   0.081   0.963   0.975
  138EC       O 1376   0.185   0.868   0.954
  138EC       H 1377  -0.081   0.856   0.879
  138EC       H 1378  -0.121   0.921   1.040
  138EC       H 1379   0.098   1.014   1.069
  138EC       H 1380   0.079   1.036   0.893
  139EC       O 1381   2.235   2.851   3.336
  139EC       C 1382   2.275   2.923   3.426
  139EC       O 1383   2.318   2.878   3.548
  139EC       C 1384   2.331   2.991   3.630
  139EC       C 1385   2.354   3.102   3.533
  139EC       O 1386   2.280   3.060   3.419
  139EC       H 1387   2.238   3.004   3.687
  139EC       H 1388   2.414   2.980   3.700
  139EC       H 1389   2.459   3.112   3.505
  139EC       H 1390   2.317   3.199   3.568
  140EC       O 1391   3.746   1.668   2.792
  140EC       C 1392   3.652   1.629   2.858
  140EC       O 1393   3.661   1.578   2.984
  140EC       C 1394   3.536   1.522   3.015
  140EC       C 1395   3.442   1.600   2.928
  140EC       O 1396   3.522   1.630   2.814
  140EC       H 1397   3.537   1.416   2.989
  140EC       H 1398   3.512   1.533   3.121
  140EC       H 1399   3.411   1.694   2.975
  140EC       H 1400   3.353   1.544   2.899
  141EC       O 1401   0.080   1.289   3.262
  141EC       C 1402   0.073   1.267   3.142
  141EC       O 1403   0.179   1.275   3.056
  141EC       C 1404   0.125   1.267   2.926
  141EC       C 1405  -0.002   1.192   2.947
  141EC       O 1406  -0.042   1.232   3.077
  141EC       H 1407   0.108   1.369   2.889
  141EC       H 1408   0.193   1.215   2.858
  141EC       H 1409   0.013   1.084   2.946
  141EC       H 1410  -0.079   1.218   2.873
  142EC       O 1411   0.001   2.268   1.943
  142EC       C 1412   0.055   2.159   1.935
  142EC       O 1413   0.186   2.139   1.901
  142EC       C 1414   0.202   2.001   1.878
  142EC       C 1415   0.092   1.941   1.961
  142EC       O 1416  -0.009   2.040   1.956
  142EC       H 1417   0.188   1.982   1.771
  142EC       H 1418   0.300   1.966   1.909
  142EC       H 1419   0.123   1.926   2.065
  142EC       H 1420   0.056   1.846   1.920
  143EC       O 1421   0.963   1.580   1.079
  143EC       C 1422   1.009   1.690   1.051
  143EC       O 1423   0.996   1.752   0.930
  143EC       C 1424   1.082   1.863   0.932
  143EC       C 1425   1.093   1.895   1.077
  143EC       O 1426   1.081   1.767   1.139
  143EC       H 1427   1.178   1.833   0.888
  143EC       H 1428   1.041   1.946   0.874
  143EC       H 1429   1.011   1.959   1.112
  143EC       H 1430   1.189   1.941   1.104
  144EC       O 1431   3.224   0.728   3.853
  144EC       C 1432   3.159   0.745   3.751
  144EC       O 1433   3.024   0.764   3.748
  144EC       C 1434   2.985   0.755   3.613
  144EC       C 1435   3.110   0.791   3.539
  144EC       O 1436   3.212   0.745   3.625
  144EC       H 1437   2.954   0.651   3.593
  144EC       H 1438   2.902   0.822   3.590
  144EC       H 1439   3.120   0.900   3.527
  144EC       H 1440   3.117   0.744   3.441
  145EC       O 1441   3.588   1.025   3.736
  145EC       C 1442   3.643   1.134   3.739
  145EC       O 1443   3.707   1.192   3.633
  145EC       C 1444   3.776   1.304   3.684
  145EC       C 1445   3.696   1.340   3.805
  145EC       O 1446   3.647   1.214   3.850
  145EC       H 1447   3.878   1.273   3.709
  145EC       H 1448   3.780   1.385   3.611
  145EC       H 1449   3.612   1.405   3.781
  145EC       H 1450   3.757   1.388   3.883
  146EC       O 1451   3.215   0.502   1.162
  146EC       C 1452   3.113   0.534   1.220
  146EC       O 1453   3.023   0.446   1.273
  146EC       C 1454   2.909   0.521   1.308
  146EC       C 1455   2.964   0.658   1.331
  146EC       O 1456   3.073   0.664   1.240
  146EC       H 1457   2.838   0.518   1.224
  146EC       H 1458   2.860   0.480   1.397
  146EC       H 1459   3.003   0.670   1.433
  146EC       H 1460   2.892   0.737   1.310
  147EC       O 1461   1.287   2.040   0.240
  147EC       C 1462   1.308   1.923   0.212
  147EC       O 1463   1.399   1.843   0.274
  147EC       C 1464   1.410   1.726   0.197
  147EC       C 1465   1.278   1.720   0.127
  147EC       O 1466   1.243   1.856   0.112
  147EC       H 1467   1.493   1.739   0.127
  147EC       H 1468   1.429   1.639   0.259
  147EC       H 1469   1.202   1.670   0.189
  147EC       H 1470   1.283   1.670   0.030
  148EC       O 1471   3.583   1.517   1.628
  148EC       C 1472   3.643   1.508   1.522
  148EC       O 1473   3.657   1.393   1.450
  148EC       C 1474   3.752   1.419   1.349
  148EC       C 1475   3.742   1.567   1.331
  148EC       O 1476   3.707   1.613   1.461
  148EC       H 1477   3.851   1.389   1.386
  148EC       H 1478   3.730   1.365   1.258
  148EC       H 1479   3.662   1.595   1.261
  148EC       H 1480   3.836   1.613   1.298
  149EC       O 1481   1.406   2.069   3.537
  149EC       C 1482   1.290   2.100   3.516
  149EC       O 1483   1.188   2.012   3.494
  149EC       C 1484   1.078   2.088   3.451
  149EC       C 1485   1.104   2.222   3.511
  149EC       O 1486   1.246   2.230   3.512
  149EC       H 1487   1.078   2.090   3.342
  149EC       H 1488   0.984   2.045   3.486
  149EC       H 1489   1.067   2.229   3.614
  149EC       H 1490   1.061   2.304   3.453
  150EC       O 1491   2.565   1.561   2.347
  150EC       C 1492   2.627   1.569   2.452
  150EC       O 1493   2.576   1.614   2.569
  150EC       C 1494   2.684   1.631   2.657
  150EC       C 1495   2.785   1.534   2.605
  150EC       O 1496   2.759   1.534   2.465
  150EC       H 1497   2.719   1.735   2.650
  150EC       H 1498   2.656   1.609   2.760
  150EC       H 1499   2.770   1.433   2.644
  150EC       H 1500   2.889   1.565   2.624
  151EC       O 1501   1.635   2.669   0.648
  151EC       C 1502   1.605   2.743   0.556
  151EC       O 1503   1.677   2.852   0.517
  151EC       C 1504   1.597   2.923   0.426
  151EC       C 1505   1.508   2.817   0.370
  151EC       O 1506   1.493   2.727   0.478
  151EC       H 1507   1.541   3.000   0.481
  151EC       H 1508   1.658   2.972   0.349
  151EC       H 1509   1.555   2.765   0.286
  151EC       H 1510   1.411   2.855   0.337
  152EC       O 1511   0.498   0.952   0.696
  152EC       C 1512   0.492   0.955   0.818
  152EC       O 1513   0.392   1.013   0.890
  152EC       C 1514   0.435   1.018   1.024
  152EC       C 1515   0.533   0.906   1.031
  152EC       O 1516   0.588   0.902   0.901
  152EC       H 1517   0.482   1.116   1.041
  152EC       H 1518   0.352   1.006   1.093
  152EC       H 1519   0.484   0.810   1.052
  152EC       H 1520   0.612   0.922   1.106
  153EC       O 1521   3.561   2.216   2.288
  153EC       C 1522   3.456   2.175   2.240
  153EC       O 1523   3.332   2.221   2.275
  153EC       C 1524   3.239   2.132   2.217
  153EC       C 1525   3.314   2.076   2.100
  153EC       O 1526   3.449   2.077   2.146
  153EC       H 1527   3.214   2.055   2.291
  153EC       H 1528   3.148   2.184   2.187
  153EC       H 1529   3.306   2.140   2.012
  153EC       H 1530   3.282   1.975   2.074
  154EC       O 1531   3.559   1.825   2.371
  154EC       C 1532   3.672   1.866   2.389
  154EC       O 1533   3.729   1.969   2.321
  154EC       C 1534   3.866   1.968   2.353
  154EC       C 1535   3.869   1.902   2.487
  154EC       O 1536   3.759   1.812   2.480
  154EC       H 1537   3.919   1.910   2.277
  154EC       H 1538   3.907   2.069   2.356
  154EC       H 1539   3.851   1.973   2.569
  154EC       H 1540   3.962   1.848   2.506
  155EC       O 1541   2.737   0.220   2.877
  155EC       C 1542   2.660   0.284   2.808
  155EC       O 1543   2.535   0.325   2.847
  155EC       C 1544   2.470   0.373   2.732
  155EC       C 1545   2.584   0.416   2.645
  155EC       O 1546   2.687   0.324   2.680
  155EC       H 1547   2.412   0.292   2.688
  155EC       H 1548   2.403   0.456   2.756
  155EC       H 1549   2.618   0.517   2.667
  155EC       H 1550   2.561   0.409   2.538
  156EC       O 1551   3.364   3.135   0.923
  156EC       C 1552   3.288   3.196   0.849
  156EC       O 1553   3.282   3.179   0.714
  156EC       C 1554   3.202   3.284   0.664
  156EC       C 1555   3.116   3.319   0.782
  156EC       O 1556   3.200   3.291   0.892
  156EC       H 1557   3.268   3.366   0.635
  156EC       H 1558   3.143   3.252   0.578
  156EC       H 1559   3.027   3.255   0.788
  156EC       H 1560   3.085   3.424   0.782
  157EC       O 1561   3.268   2.996   2.788
  157EC       C 1562   3.337   2.898   2.808
  157EC       O 1563   3.319   2.777   2.748
  157EC       C 1564   3.403   2.686   2.815
  157EC       C 1565   3.511   2.773   2.870
  157EC       O 1566   3.443   2.896   2.894
  157EC       H 1567   3.345   2.637   2.894
  157EC       H 1568   3.442   2.610   2.747
  157EC       H 1569   3.591   2.791   2.797
  157EC       H 1570   3.555   2.734   2.962
  158EC       O 1571   2.818   2.266   3.168
  158EC       C 1572   2.767   2.258   3.279
  158EC       O 1573   2.778   2.150   3.362
  158EC       C 1574   2.687   2.170   3.467
  158EC       C 1575   2.673   2.319   3.471
  158EC       O 1576   2.691   2.357   3.336
  158EC       H 1577   2.592   2.121   3.440
  158EC       H 1578   2.724   2.129   3.560
  158EC       H 1579   2.752   2.365   3.532
  158EC       H 1580   2.575   2.352   3.508
  159EC       O 1581   1.753   2.332   0.873
  159EC       C 1582   1.784   2.362   0.987
  159EC       O 1583   1.807   2.489   1.031
  159EC       C 1584   1.865   2.478   1.159
  159EC       C 1585   1.813   2.346   1.207
  159EC       O 1586   1.802   2.271   1.087
  159EC       H 1587   1.974   2.479   1.148
  159EC       H 1588   1.834   2.560   1.223
  159EC       H 1589   1.714   2.355   1.253
  159EC       H 1590   1.881   2.297   1.277
  160EC       O 1591   0.976   0.158   1.476
  160EC       C 1592   0.896   0.250   1.487
  160EC       O 1593   0.915   0.376   1.439
  160EC       C 1594   0.813   0.456   1.493
  160EC       C 1595   0.704   0.357   1.520
  160EC       O 1596   0.776   0.239   1.551
  160EC       H 1597   0.851   0.503   1.585
  160EC       H 1598   0.782   0.534   1.424
  160EC       H 1599   0.642   0.340   1.432
  160EC       H 1600   0.640   0.386   1.604
  161EC       O 1601   2.458   1.708   3.297
  161EC       C 1602   2.427   1.627   3.212
  161EC       O 1603   2.488   1.614   3.090
  161EC       C 1604   2.407   1.528   3.013
  161EC       C 1605   2.336   1.446   3.117
  161EC       O 1606   2.324   1.537   3.226
  161EC       H 1607   2.338   1.589   2.954
  161EC       H 1608   2.467   1.466   2.946
  161EC       H 1609   2.395   1.360   3.150
  161EC       H 1610   2.238   1.412   3.085
  162EC       O 1611   1.320   3.402   0.650
  162EC       C 1612   1.438   3.434   0.657
  162EC       O 1613   1.534   3.362   0.721
  162EC       C 1614   1.649   3.443   0.727
  162EC       C 1615   1.631   3.535   0.610
  162EC       O 1616   1.490   3.548   0.602
  162EC       H 1617   1.648   3.497   0.823
  162EC       H 1618   1.740   3.384   0.720
  162EC       H 1619   1.668   3.491   0.518
  162EC       H 1620   1.678   3.633   0.625
  163EC       O 1621   1.687   1.467   0.884
  163EC       C 1622   1.782   1.539   0.857
  163EC       O 1623   1.776   1.648   0.775
  163EC       C 1624   1.909   1.687   0.749
  163EC       C 1625   1.982   1.635   0.869
  163EC       O 1626   1.909   1.519   0.903
  163EC       H 1627   1.941   1.639   0.656
  163EC       H 1628   1.917   1.795   0.738
  163EC       H 1629   1.979   1.706   0.952
  163EC       H 1630   2.087   1.611   0.847
  164EC       O 1631   3.786   1.237   2.340
  164EC       C 1632   3.792   1.244   2.462
  164EC       O 1633   3.864   1.336   2.531
  164EC       C 1634   3.864   1.295   2.666
  164EC       C 1635   3.740   1.213   2.676
  164EC       O 1636   3.728   1.157   2.546
  164EC       H 1637   3.955   1.236   2.683
  164EC       H 1638   3.863   1.380   2.734
  164EC       H 1639   3.652   1.274   2.696
  164EC       H 1640   3.747   1.134   2.751
  165EC       O 1641   3.346   2.272   3.597
  165EC       C 1642   3.443   2.289   3.526
  165EC       O 1643   3.467   2.401   3.452
  165EC       C 1644   3.575   2.372   3.367
  165EC       C 1645   3.648   2.265   3.442
  165EC       O 1646   3.544   2.197   3.511
  165EC       H 1647   3.535   2.336   3.271
  165EC       H 1648   3.637   2.460   3.349
  165EC       H 1649   3.718   2.306   3.515
  165EC       H 1650   3.702   2.196   3.376
  166EC       O 1651   2.333   0.117   0.729
  166EC       C 1652   2.377   0.091   0.618
  166EC       O 1653   2.381  -0.033   0.564
  166EC       C 1654   2.461  -0.024   0.448
  166EC       C 1655   2.446   0.119   0.409
  166EC       O 1656   2.430   0.185   0.534
  166EC       H 1657   2.564  -0.050   0.475
  166EC       H 1658   2.426  -0.092   0.370
  166EC       H 1659   2.358   0.137   0.348
  166EC       H 1660   2.534   0.158   0.356
  167EC       O 1661   0.665   1.026   2.725
  167EC       C 1662   0.666   1.101   2.629
  167EC       O 1663   0.709   1.230   2.631
  167EC       C 1664   0.671   1.288   2.509
  167EC       C 1665   0.662   1.170   2.417
  167EC       O 1666   0.622   1.065   2.504
  167EC       H 1667   0.574   1.337   2.523
  167EC       H 1668   0.744   1.361   2.475
  167EC       H 1669   0.759   1.145   2.373
  167EC       H 1670   0.589   1.184   2.337
  168EC       O 1671   1.730   3.123   2.641
  168EC       C 1672   1.788   3.082   2.740
  168EC       O 1673   1.913   3.121   2.779
  168EC       C 1674   1.953   3.033   2.882
  168EC       C 1675   1.823   2.986   2.938
  168EC       O 1676   1.737   2.988   2.826
  168EC       H 1677   2.011   2.952   2.836
  168EC       H 1678   2.015   3.084   2.956
  168EC       H 1679   1.784   3.055   3.014
  168EC       H 1680   1.829   2.886   2.981
  169EC       O 1681   1.714   1.449   2.472
  169EC       C 1682   1.678   1.381   2.377
  169EC       O 1683   1.740   1.268   2.334
  169EC       C 1684   1.682   1.235   2.210
  169EC       C 1685   1.546   1.297   2.219
  169EC       O 1686   1.569   1.411   2.300
  169EC       H 1687   1.743   1.279   2.131
  169EC       H 1688   1.677   1.127   2.196
  169EC       H 1689   1.474   1.232   2.268
  169EC       H 1690   1.507   1.327   2.121
  170EC       O 1691   3.404   3.489   0.911
  170EC       C 1692   3.397   3.433   1.019
  170EC       O 1693   3.394   3.298   1.037
  170EC       C 1694   3.361   3.276   1.172
  170EC       C 1695   3.407   3.401   1.239
  170EC       O 1696   3.389   3.500   1.139
  170EC       H 1697   3.252   3.263   1.179
  170EC       H 1698   3.410   3.187   1.211
  170EC       H 1699   3.513   3.396   1.266
  170EC       H 1700   3.349   3.426   1.329
  171DMC      C 1701   2.097   1.629   2.739
  171DMC      O 1702   2.129   1.767   2.718
  171DMC      C 1703   2.144   1.837   2.832
  171DMC      O 1704   2.132   1.793   2.946
  171DMC      O 1705   2.175   1.965   2.800
  171DMC      C 1706   2.193   2.050   2.912
  171DMC      H 1707   2.001   1.619   2.792
  171DMC      H 1708   2.087   1.580   2.641
  171DMC      H 1709   2.176   1.578   2.794
  171DMC      H 1710   2.217   2.151   2.875
  171DMC      H 1711   2.101   2.057   2.971
  171DMC      H 1712   2.277   2.016   2.973
  172DMC      C 1713   2.896   3.400   2.790
  172DMC      O 1714   3.019   3.472   2.801
  172DMC      C 1715   3.058   3.532   2.686
  172DMC      O 1716   2.999   3.528   2.579
  172DMC      O 1717   3.176   3.597   2.710
  172DMC      C 1718   3.228   3.663   2.597
  172DMC      H 1719   2.905   3.319   2.716
  172DMC      H 1720   2.872   3.356   2.887
  172DMC      H 1721   2.814   3.467   2.762
  172DMC      H 1722   3.322   3.712   2.626
  172DMC      H 1723   3.250   3.592   2.516
  172DMC      H 1724   3.159   3.740   2.562
  173DMC      C 1725   0.520   0.814   2.340
  173DMC      O 1726   0.659   0.798   2.310
  173DMC      C 1727   0.706   0.673   2.334
  173DMC      O 1728   0.641   0.579   2.378
  173DMC      O 1729   0.838   0.670   2.302
  173DMC      C 1730   0.899   0.544   2.324
  173DMC      H 1731   0.501   0.796   2.446
  173DMC      H 1732   0.492   0.917   2.317
  173DMC      H 1733   0.460   0.747   2.278
  173DMC      H 1734   1.005   0.552   2.296
  173DMC      H 1735   0.895   0.516   2.430
  173DMC      H 1736   0.853   0.467   2.262
  174DMC      C 1737   0.115   1.890   3.191
  174DMC      O 1738   0.156   1.903   3.054
  174DMC      C 1739   0.278   1.960   3.038
  174DMC      O 1740   0.350   1.999   3.128
  174DMC      O 1741   0.305   1.965   2.905
  174DMC      C 1742   0.431   2.024   2.875
  174DMC      H 1743   0.108   1.989   3.238
  174DMC      H 1744   0.016   1.844   3.193
  174DMC      H 1745   0.184   1.827   3.246
  174DMC      H 1746   0.443   2.024   2.766
  174DMC      H 1747   0.435   2.128   2.910
  174DMC      H 1748   0.512   1.965   2.919
  175DMC      C 1749   3.445   1.916   1.873
  175DMC      O 1750   3.306   1.907   1.908
  175DMC      C 1751   3.223   1.918   1.802
  175DMC      O 1752   3.256   1.936   1.686
  175DMC      O 1753   3.095   1.907   1.847
  175DMC      C 1754   2.997   1.918   1.745
  175DMC      H 1755   3.467   2.014   1.829
  175DMC      H 1756   3.504   1.905   1.965
  175DMC      H 1757   3.473   1.836   1.805
  175DMC      H 1758   2.898   1.909   1.792
  175DMC      H 1759   3.002   2.017   1.697
  175DMC      H 1760   3.008   1.838   1.672
  176DMC      C 1761   3.182   2.446   2.998
  176DMC      O 1762   3.186   2.550   2.899
  176DMC      C 1763   3.073   2.624   2.893
  176DMC      O 1764   2.973   2.608   2.962
  176DMC      O 1765   3.089   2.718   2.797
  176DMC      C 1766   2.976   2.802   2.780
  176DMC      H 1767   3.102   2.375   2.977
  176DMC      H 1768   3.277   2.393   2.996
  176DMC      H 1769   3.169   2.489   3.098
  176DMC      H 1770   2.998   2.874   2.699
  176DMC      H 1771   2.888   2.744   2.749
  176DMC      H 1772   2.955   2.858   2.871
  177DMC      C 1773   2.814   3.274   1.083
  177DMC      O 1774   2.676   3.262   1.047
  177DMC      C 1775   2.642   3.332   0.937
  177DMC      O 1776   2.717   3.402   0.870
  177DMC      O 1777   2.509   3.312   0.913
  177DMC      C 1778   2.460   3.382   0.800
  177DMC      H 1779   2.839   3.378   1.106
  177DMC      H 1780   2.832   3.214   1.173
  177DMC      H 1781   2.878   3.236   1.003
  177DMC      H 1782   2.353   3.360   0.790
  177DMC      H 1783   2.472   3.490   0.813
  177DMC      H 1784   2.511   3.348   0.709
  178DMC      C 1785   0.187   0.553   3.039
  178DMC      O 1786   0.253   0.668   3.094
  178DMC      C 1787   0.169   0.756   3.154
  178DMC      O 1788   0.047   0.744   3.162
  178DMC      O 1789   0.242   0.859   3.202
  178DMC      C 1790   0.165   0.959   3.267
  178DMC      H 1791   0.116   0.583   2.961
  178DMC      H 1792   0.263   0.489   2.994
  178DMC      H 1793   0.136   0.497   3.117
  178DMC      H 1794   0.234   1.038   3.302
  178DMC      H 1795   0.094   1.004   3.197
  178DMC      H 1796   0.114   0.917   3.354
  179DMC      C 1797   0.972   1.642   3.346
  179DMC      O 1798   1.108   1.637   3.300
  179DMC      C 1799   1.120   1.651   3.166
  179DMC      O 1800   1.029   1.665   3.086
  179DMC      O 1801   1.253   1.645   3.135
  179DMC      C 1802   1.280   1.658   2.996
  179DMC      H 1803   0.914   1.560   3.302
  179DMC      H 1804   0.972   1.630   3.455
  179DMC      H 1805   0.927   1.738   3.322
  179DMC      H 1806   1.388   1.651   2.982
  179DMC      H 1807   1.233   1.576   2.940
  179DMC      H 1808   1.246   1.755   2.959
  180DMC      C 1809   2.113   1.623   2.143
  180DMC      O 1810   2.177   1.747   2.176
  180DMC      C 1811   2.297   1.731   2.236
  180DMC      O 1812   2.351   1.625   2.263
  180DMC      O 1813   2.347   1.855   2.263
  180DMC      C 1814   2.474   1.853   2.327
  180DMC      H 1815   2.093   1.564   2.233
  180DMC      H 1816   2.017   1.646   2.095
  180DMC      H 1817   2.174   1.566   2.072
  180DMC      H 1818   2.505   1.956   2.345
  180DMC      H 1819   2.467   1.802   2.424
  180DMC      H 1820   2.548   1.804   2.263
  181DMC      C 1821   3.442   1.504   3.348
  181DMC      O 1822   3.460   1.555   3.481
  181DMC      C 1823   3.534   1.668   3.487
  181DMC      O 1824   3.585   1.725   3.391
  181DMC      O 1825   3.542   1.707   3.617
  181DMC      C 1826   3.619   1.825   3.636
  181DMC      H 1827   3.539   1.478   3.304
  181DMC      H 1828   3.381   1.413   3.354
  181DMC      H 1829   3.390   1.576   3.286
  181DMC      H 1830   3.620   1.847   3.744
  181DMC      H 1831   3.722   1.810   3.603
  181DMC      H 1832   3.573   1.909   3.584
  182DMC      C 1833   2.522   3.268   3.001
  182DMC      O 1834   2.452   3.147   2.968
  182DMC      C 1835   2.411   3.077   3.076
  182DMC      O 1836   2.429   3.108   3.193
  182DMC      O 1837   2.346   2.966   3.032
  182DMC      C 1838   2.298   2.883   3.136
  182DMC      H 1839   2.613   3.246   3.058
  182DMC      H 1840   2.551   3.317   2.907
  182DMC      H 1841   2.458   3.336   3.057
  182DMC      H 1842   2.248   2.796   3.091
  182DMC      H 1843   2.381   2.846   3.198
  182DMC      H 1844   2.225   2.936   3.197
  183DMC      C 1845   3.842   0.186   1.999
  183DMC      O 1846   3.758   0.302   1.996
  183DMC      C 1847   3.656   0.294   1.908
  183DMC      O 1848   3.633   0.199   1.834
  183DMC      O 1849   3.583   0.409   1.915
  183DMC      C 1850   3.473   0.413   1.826
  183DMC      H 1851   3.889   0.171   1.901
  183DMC      H 1852   3.920   0.202   2.073
  183DMC      H 1853   3.785   0.098   2.028
  183DMC      H 1854   3.422   0.509   1.839
  183DMC      H 1855   3.507   0.406   1.722
  183DMC      H 1856   3.402   0.333   1.849
  184DMC      C 1857   1.087   2.538   0.462
  184DMC      O 1858   1.140   2.473   0.345
  184DMC      C 1859   1.122   2.544   0.231
  184DMC      O 1860   1.066   2.652   0.221
  184DMC      O 1861   1.177   2.473   0.129
  184DMC      C 1862   1.164   2.536   0.002
  184DMC      H 1863   0.979   2.552   0.453
  184DMC      H 1864   1.107   2.474   0.548
  184DMC      H 1865   1.137   2.634   0.478
  184DMC      H 1866   1.210   2.470  -0.073
  184DMC      H 1867   1.058   2.548  -0.024
  184DMC      H 1868   1.216   2.632   0.002
  185DMC      C 1869   2.146   1.105   2.763
  185DMC      O 1870   2.003   1.106   2.764
  185DMC      C 1871   1.947   0.998   2.706
  185DMC      O 1872   2.007   0.904   2.655
  185DMC      O 1873   1.811   1.011   2.713
  185DMC      C 1874   1.740   0.903   2.655
  185DMC      H 1875   2.184   1.104   2.660
  185DMC      H 1876   2.181   1.196   2.812
  185DMC      H 1877   2.184   1.019   2.819
  185DMC      H 1878   1.633   0.923   2.665
  185DMC      H 1879   1.763   0.895   2.547
  185DMC      H 1880   1.763   0.809   2.706
  186DMC      C 1881   3.506   3.601   0.668
  186DMC      O 1882   3.465   3.667   0.547
  186DMC      C 1883   3.330   3.677   0.534
  186DMC      O 1884   3.247   3.635   0.613
  186DMC      O 1885   3.304   3.741   0.417
  186DMC      C 1886   3.166   3.758   0.391
  186DMC      H 1887   3.468   3.498   0.670
  186DMC      H 1888   3.615   3.598   0.669
  186DMC      H 1889   3.472   3.655   0.755
  186DMC      H 1890   3.155   3.810   0.295
  186DMC      H 1891   3.116   3.660   0.382
  186DMC      H 1892   3.119   3.819   0.469
  187DMC      C 1893   2.926   0.251   2.075
  187DMC      O 1894   2.981   0.198   2.196
  187DMC      C 1895   2.937   0.073   2.226
  187DMC      O 1896   2.858   0.007   2.160
  187DMC      O 1897   2.996   0.034   2.342
  187DMC      C 1898   2.958  -0.096   2.385
  187DMC      H 1899   2.817   0.259   2.082
  187DMC      H 1900   2.967   0.351   2.060
  187DMC      H 1901   2.953   0.189   1.990
  187DMC      H 1902   3.011  -0.117   2.479
  187DMC      H 1903   2.850  -0.100   2.404
  187DMC      H 1904   2.987  -0.171   2.311
  188DMC      C 1905   3.384   0.316   1.006
  188DMC      O 1906   3.340   0.320   1.143
  188DMC      C 1907   3.433   0.278   1.231
  188DMC      O 1908   3.545   0.239   1.204
  188DMC      O 1909   3.379   0.287   1.356
  188DMC      C 1910   3.468   0.245   1.459
  188DMC      H 1911   3.409   0.214   0.977
  188DMC      H 1912   3.302   0.352   0.943
  188DMC      H 1913   3.470   0.382   0.992
  188DMC      H 1914   3.415   0.255   1.555
  188DMC      H 1915   3.495   0.139   1.446
  188DMC      H 1916   3.557   0.308   1.462
  189DMC      C 1917   3.564   1.991   1.090
  189DMC      O 1918   3.568   2.016   1.231
  189DMC      C 1919   3.446   2.037   1.286
  189DMC      O 1920   3.340   2.038   1.226
  189DMC      O 1921   3.463   2.058   1.419
  189DMC      C 1922   3.342   2.082   1.489
  189DMC      H 1923   3.523   2.078   1.037
  189DMC      H 1924   3.667   1.975   1.055
  189DMC      H 1925   3.506   1.902   1.068
  189DMC      H 1926   3.366   2.099   1.595
  189DMC      H 1927   3.293   2.173   1.451
  189DMC      H 1928   3.275   1.996   1.482
  190DMC      C 1929   1.190   0.606   2.040
  190DMC      O 1930   1.243   0.480   2.082
  190DMC      C 1931   1.181   0.373   2.026
  190DMC      O 1932   1.087   0.378   1.947
  190DMC      O 1933   1.240   0.260   2.073
  190DMC      C 1934   1.183   0.141   2.022
  190DMC      H 1935   1.084   0.615   2.069
  190DMC      H 1936   1.246   0.685   2.090
  190DMC      H 1937   1.201   0.619   1.932
  190DMC      H 1938   1.237   0.056   2.066
  190DMC      H 1939   1.077   0.132   2.051
  190DMC      H 1940   1.195   0.136   1.914
  191DMC      C 1941   3.270   3.383   3.457
  191DMC      O 1942   3.313   3.494   3.536
  191DMC      C 1943   3.218   3.541   3.620
  191DMC      O 1944   3.104   3.498   3.631
  191DMC      O 1945   3.271   3.645   3.690
  191DMC      C 1946   3.180   3.704   3.782
  191DMC      H 1947   3.186   3.411   3.392
  191DMC      H 1948   3.354   3.352   3.393
  191DMC      H 1949   3.243   3.298   3.520
  191DMC      H 1950   3.232   3.787   3.832
  191DMC      H 1951   3.093   3.745   3.729
  191DMC      H 1952   3.149   3.631   3.857
  192DMC      C 1953   3.482   0.892   1.087
  192DMC      O 1954   3.352   0.832   1.086
  192DMC      C 1955   3.254   0.916   1.044
  192DMC      O 1956   3.269   1.032   1.010
  192DMC      O 1957   3.136   0.848   1.047
  192DMC      C 1958   3.025   0.925   1.006
  192DMC      H 1959   3.485   0.977   1.156
  192DMC      H 1960   3.554   0.817   1.122
  192DMC      H 1961   3.511   0.923   0.986
  192DMC      H 1962   2.935   0.862   1.012
  192DMC      H 1963   3.010   1.011   1.072
  192DMC      H 1964   3.037   0.957   0.902
  193DMC      C 1965   1.035   1.104   1.626
  193DMC      O 1966   0.992   1.051   1.752
  193DMC      C 1967   1.078   1.076   1.854
  193DMC      O 1968   1.184   1.136   1.845
  193DMC      O 1969   1.026   1.022   1.967
  193DMC      C 1970   1.107   1.041   2.082
  193DMC      H 1971   1.131   1.059   1.596
  193DMC      H 1972   0.960   1.079   1.551
  193DMC      H 1973   1.045   1.212   1.631
  193DMC      H 1974   1.057   0.993   2.168
  193DMC      H 1975   1.205   0.992   2.069
  193DMC      H 1976   1.119   1.147   2.104
  194DMC      C 1977   2.530   1.077   3.396
  194DMC      O 1978   2.583   1.025   3.274
  194DMC      C 1979   2.511   0.923   3.222
  194DMC      O 1980   2.411   0.874   3.271
  194DMC      O 1981   2.571   0.883   3.107
  194DMC      C 1982   2.505   0.775   3.042
  194DMC      H 1983   2.530   1.000   3.474
  194DMC      H 1984   2.595   1.159   3.430
  194DMC      H 1985   2.430   1.116   3.381
  194DMC      H 1986   2.561   0.750   2.951
  194DMC      H 1987   2.505   0.686   3.107
  194DMC      H 1988   2.403   0.803   3.014
  195DMC      C 1989   1.292   3.883   1.295
  195DMC      O 1990   1.217   3.800   1.205
  195DMC      C 1991   1.287   3.693   1.159
  195DMC      O 1992   1.403   3.666   1.187
  195DMC      O 1993   1.206   3.622   1.076
  195DMC      C 1994   1.268   3.508   1.020
  195DMC      H 1995   1.380   3.925   1.245
  195DMC      H 1996   1.227   3.965   1.327
  195DMC      H 1997   1.322   3.827   1.384
  195DMC      H 1998   1.195   3.458   0.954
  195DMC      H 1999   1.355   3.536   0.959
  195DMC      H 2000   1.297   3.438   1.098
  196DMC      C 2001   0.743   3.283   1.339
  196DMC      O 2002   0.787   3.346   1.460
  196DMC      C 2003   0.699   3.335   1.562
  196DMC      O 2004   0.591   3.278   1.558
  196DMC      O 2005   0.751   3.398   1.671
  196DMC      C 2006   0.668   3.394   1.785
  196DMC      H 2007   0.650   3.328   1.303
  196DMC      H 2008   0.820   3.297   1.263
  196DMC      H 2009   0.729   3.176   1.354
  196DMC      H 2010   0.719   3.448   1.866
  196DMC      H 2011   0.573   3.445   1.766
  196DMC      H 2012   0.652   3.291   1.817
  197DMC      C 2013   1.545   3.115   1.289
  197DMC      O 2014   1.491   3.074   1.163
  197DMC      C 2015   1.575   3.093   1.058
  197DMC      O 2016   1.687   3.140   1.064
  197DMC      O 2017   1.513   3.049   0.946
  197DMC      C 2018   1.591   3.064   0.828
  197DMC      H 2019   1.568   3.223   1.288
  197DMC      H 2020   1.470   3.096   1.366
  197DMC      H 2021   1.635   3.058   1.313
  197DMC      H 2022   1.531   3.027   0.743
  197DMC      H 2023   1.614   3.170   0.810
  197DMC      H 2024   1.682   3.005   0.835
  198DMC      C 2025   1.905   1.012   3.430
  198DMC      O 2026   1.785   1.043   3.359
  198DMC      C 2027   1.707   0.934   3.334
  198DMC      O 2028   1.733   0.819   3.365
  198DMC      O 2029   1.597   0.976   3.266
  198DMC      C 2030   1.507   0.871   3.233
  198DMC      H 2031   1.968   0.944   3.372
  198DMC      H 2032   1.960   1.105   3.446
  198DMC      H 2033   1.882   0.969   3.528
  198DMC      H 2034   1.422   0.914   3.179
  198DMC      H 2035   1.556   0.798   3.167
  198DMC      H 2036   1.469   0.822   3.323
  199DMC      C 2037   0.399   1.906   0.393
  199DMC      O 2038   0.366   1.887   0.531
  199DMC      C 2039   0.473   1.888   0.614
  199DMC      O 2040   0.589   1.902   0.580
  199DMC      O 2041   0.428   1.869   0.741
  199DMC      C 2042   0.531   1.868   0.838
  199DMC      H 2043   0.464   1.826   0.358
  199DMC      H 2044   0.307   1.904   0.335
  199DMC      H 2045   0.447   2.003   0.378
  199DMC      H 2046   0.485   1.852   0.937
  199DMC      H 2047   0.601   1.785   0.819
  199DMC      H 2048   0.584   1.963   0.840
  200DMC      C 2049   1.499   1.531   3.286
  200DMC      O 2050   1.613   1.522   3.199
  200DMC      C 2051   1.706   1.617   3.222
  200DMC      O 2052   1.700   1.706   3.306
  200DMC      O 2053   1.808   1.599   3.134
  200DMC      C 2054   1.914   1.693   3.147
  200DMC      H 2055   1.447   1.626   3.272
  200DMC      H 2056   1.430   1.450   3.260
  200DMC      H 2057   1.529   1.518   3.390
  200DMC      H 2058   1.990   1.670   3.072
  200DMC      H 2059   1.877   1.795   3.128
  200DMC      H 2060   1.959   1.686   3.246
  201DMC      C 2061   2.880   1.494   1.760
  201DMC      O 2062   2.946   1.381   1.702
  201DMC      C 2063   2.891   1.340   1.585
  201DMC      O 2064   2.795   1.391   1.529
  201DMC      O 2065   2.962   1.233   1.540
  201DMC      C 2066   2.915   1.180   1.417
  201DMC      H 2067   2.775   1.471   1.783
  201DMC      H 2068   2.931   1.519   1.854
  201DMC      H 2069   2.886   1.580   1.693
  201DMC      H 2070   2.978   1.094   1.390
  201DMC      H 2071   2.812   1.144   1.428
  201DMC      H 2072   2.922   1.255   1.338
  202DMC      C 2073   3.212   0.755   0.268
  202DMC      O 2074   3.290   0.728   0.386
  202DMC      C 2075   3.266   0.814   0.488
  202DMC      O 2076   3.187   0.907   0.486
  202DMC      O 2077   3.344   0.778   0.593
  202DMC      C 2078   3.329   0.861   0.707
  202DMC      H 2079   3.234   0.854   0.229
  202DMC      H 2080   3.238   0.681   0.192
  202DMC      H 2081   3.105   0.745   0.290
  202DMC      H 2082   3.397   0.825   0.785
  202DMC      H 2083   3.356   0.965   0.683
  202DMC      H 2084   3.227   0.855   0.744
  203DMC      C 2085   0.248   2.530   0.954
  203DMC      O 2086   0.200   2.662   0.982
  203DMC      C 2087   0.134   2.719   0.879
  203DMC      O 2088   0.115   2.669   0.769
  203DMC      O 2089   0.093   2.843   0.918
  203DMC      C 2090   0.023   2.915   0.818
  203DMC      H 2091   0.320   2.532   0.871
  203DMC      H 2092   0.299   2.492   1.043
  203DMC      H 2093   0.165   2.463   0.931
  203DMC      H 2094  -0.005   3.013   0.859
  203DMC      H 2095   0.087   2.931   0.730
  203DMC      H 2096  -0.069   2.862   0.790
  204DMC      C 2097   1.932   3.311   1.693
  204DMC      O 2098   2.046   3.364   1.625
  204DMC      C 2099   2.016   3.459   1.534
  204DMC      O 2100   1.904   3.500   1.507
  204DMC      O 2101   2.132   3.502   1.477
  204DMC      C 2102   2.114   3.602   1.379
  204DMC      H 2103   1.863   3.263   1.623
  204DMC      H 2104   1.966   3.236   1.765
  204DMC      H 2105   1.880   3.390   1.749
  204DMC      H 2106   2.213   3.629   1.338
  204DMC      H 2107   2.053   3.564   1.296
  204DMC      H 2108   2.069   3.691   1.422
  205DMC      C 2109   1.862   2.219   3.232
  205DMC      O 2110   1.849   2.197   3.091
  205DMC      C 2111   1.802   2.304   3.024
  205DMC      O 2112   1.772   2.412   3.073
  205DMC      O 2113   1.795   2.272   2.892
  205DMC      C 2114   1.747   2.377   2.809
  205DMC      H 2115   1.764   2.241   3.277
  205DMC      H 2116   1.900   2.127   3.278
  205DMC      H 2117   1.933   2.299   3.253
  205DMC      H 2118   1.744   2.340   2.706
  205DMC      H 2119   1.645   2.404   2.838
  205DMC      H 2120   1.814   2.463   2.814
  206DMC      C 2121   0.765   1.300   0.287
  206DMC      O 2122   0.817   1.349   0.163
  206DMC      C 2123   0.785   1.271   0.057
  206DMC      O 2124   0.721   1.167   0.061
  206DMC      O 2125   0.838   1.327  -0.055
  206DMC      C 2126   0.813   1.254  -0.174
  206DMC      H 2127   0.807   1.202   0.311
  206DMC      H 2128   0.795   1.370   0.366
  206DMC      H 2129   0.656   1.296   0.285
  206DMC      H 2130   0.860   1.307  -0.257
  206DMC      H 2131   0.857   1.154  -0.168
  206DMC      H 2132   0.706   1.248  -0.193
  207DMC      C 2133   3.943   2.766   0.380
  207DMC      O 2134   3.821   2.739   0.449
  207DMC      C 2135   3.813   2.614   0.501
  207DMC      O 2136   3.898   2.528   0.491
  207DMC      O 2137   3.693   2.602   0.564
  207DMC      C 2138   3.672   2.474   0.622
  207DMC      H 2139   3.955   2.698   0.294
  207DMC      H 2140   3.940   2.868   0.342
  207DMC      H 2141   4.029   2.756   0.447
  207DMC      H 2142   3.573   2.474   0.670
  207DMC      H 2143   3.673   2.396   0.545
  207DMC      H 2144   3.747   2.454   0.699
  208DMC      C 2145   1.023   0.738   0.180
  208DMC      O 2146   1.025   0.687   0.314
  208DMC      C 2147   1.048   0.781   0.408
  208DMC      O 2148   1.066   0.901   0.387
  208DMC      O 2149   1.047   0.721   0.530
  208DMC      C 2150   1.070   0.810   0.638
  208DMC      H 2151   1.119   0.783   0.154
  208DMC      H 2152   1.004   0.655   0.112
  208DMC      H 2153   0.943   0.811   0.168
  208DMC      H 2154   1.069   0.751   0.731
  208DMC      H 2155   1.169   0.857   0.629
  208DMC      H 2156   0.992   0.885   0.643
  209DMC      C 2157   3.269   2.205   1.822
  209DMC      O 2158   3.243   2.311   1.730
  209DMC      C 2159   3.235   2.433   1.788
  209DMC      O 2160   3.246   2.457   1.907
  209DMC      O 2161   3.210   2.525   1.690
  209DMC      C 2162   3.198   2.658   1.738
  209DMC      H 2163   3.189   2.197   1.896
  209DMC      H 2164   3.275   2.111   1.766
  209DMC      H 2165   3.365   2.221   1.872
  209DMC      H 2166   3.178   2.723   1.652
  209DMC      H 2167   3.114   2.666   1.808
  209DMC      H 2168   3.291   2.690   1.785
  210DMC      C 2169   2.155   1.743   1.122
  210DMC      O 2170   2.167   1.865   1.195
  210DMC      C 2171   2.178   1.975   1.116
  210DMC      O 2172   2.180   1.975   0.994
  210DMC      O 2173   2.188   2.084   1.197
  210DMC      C 2174   2.201   2.206   1.126
  210DMC      H 2175   2.245   1.725   1.061
  210DMC      H 2176   2.146   1.661   1.194
  210DMC      H 2177   2.066   1.743   1.059
  210DMC      H 2178   2.209   2.288   1.199
  210DMC      H 2179   2.293   2.206   1.065
  210DMC      H 2180   2.114   2.224   1.063
  211DMC      C 2181   0.359   1.666   0.990
  211DMC      O 2182   0.432   1.619   1.103
  211DMC      C 2183   0.355   1.559   1.197
  211DMC      O 2184   0.234   1.545   1.192
  211DMC      O 2185   0.436   1.518   1.299
  211DMC      C 2186   0.367   1.454   1.405
  211DMC      H 2187   0.285   1.742   1.020
  211DMC      H 2188   0.429   1.712   0.920
  211DMC      H 2189   0.309   1.584   0.939
  211DMC      H 2190   0.440   1.426   1.481
  211DMC      H 2191   0.295   1.522   1.451
  211DMC      H 2192   0.318   1.363   1.369
  212DMC      C 2193   1.043   3.107   2.314
  212DMC      O 2194   0.986   3.221   2.382
  212DMC      C 2195   1.057   3.335   2.365
  212DMC      O 2196   1.160   3.346   2.300
  212DMC      O 2197   0.994   3.434   2.433
  212DMC      C 2198   1.059   3.560   2.424
  212DMC      H 2199   1.143   3.085   2.352
  212DMC      H 2200   0.979   3.021   2.333
  212DMC      H 2201   1.046   3.125   2.206
  212DMC      H 2202   1.001   3.633   2.482
  212DMC      H 2203   1.160   3.555   2.467
  212DMC      H 2204   1.063   3.594   2.320
  213DMC      C 2205   2.609   0.326   3.417
  213DMC      O 2206   2.638   0.252   3.537
  213DMC      C 2207   2.653   0.330   3.647
  213DMC      O 2208   2.646   0.452   3.649
  213DMC      O 2209   2.680   0.250   3.753
  213DMC      C 2210   2.699   0.320   3.875
  213DMC      H 2211   2.691   0.394   3.393
  213DMC      H 2212   2.598   0.254   3.335
  213DMC      H 2213   2.516   0.381   3.428
  213DMC      H 2214   2.720   0.247   3.954
  213DMC      H 2215   2.785   0.388   3.867
  213DMC      H 2216   2.608   0.375   3.902
  214DMC      C 2217   0.099   0.667   2.264
  214DMC      O 2218   0.152   0.750   2.368
  214DMC      C 2219   0.174   0.684   2.484
  214DMC      O 2220   0.152   0.566   2.505
  214DMC      O 2221   0.224   0.773   2.574
  214DMC      C 2222   0.251   0.716   2.701
  214DMC      H 2223   0.002   0.625   2.293
  214DMC      H 2224   0.085   0.729   2.175
  214DMC      H 2225   0.169   0.587   2.239
  214DMC      H 2226   0.290   0.795   2.767
  214DMC      H 2227   0.159   0.677   2.747
  214DMC      H 2228   0.327   0.637   2.693
  215DMC      C 2229   0.555   2.085   0.050
  215DMC      O 2230   0.678   2.149   0.088
  215DMC      C 2231   0.778   2.063   0.115
  215DMC      O 2232   0.771   1.941   0.110
  215DMC      O 2233   0.888   2.135   0.149
  215DMC      C 2234   1.001   2.056   0.181
  215DMC      H 2235   0.518   2.021   0.131
  215DMC      H 2236   0.481   2.162   0.029
  215DMC      H 2237   0.569   2.026  -0.041
  215DMC      H 2238   1.084   2.123   0.207
  215DMC      H 2239   0.981   1.992   0.268
  215DMC      H 2240   1.032   1.996   0.095
  216DMC      C 2241   1.794   2.050   3.808
  216DMC      O 2242   1.725   2.141   3.722
  216DMC      C 2243   1.805   2.203   3.632
  216DMC      O 2244   1.925   2.187   3.620
  216DMC      O 2245   1.728   2.286   3.557
  216DMC      C 2246   1.800   2.358   3.458
  216DMC      H 2247   1.870   2.102   3.867
  216DMC      H 2248   1.722   2.005   3.877
  216DMC      H 2249   1.840   1.970   3.750
  216DMC      H 2250   1.729   2.422   3.404
  216DMC      H 2251   1.876   2.422   3.505
  216DMC      H 2252   1.846   2.289   3.387
  217DMC      C 2253   3.029   3.021   0.430
  217DMC      O 2254   2.989   3.037   0.293
  217DMC      C 2255   3.012   2.927   0.217
  217DMC      O 2256   3.062   2.822   0.255
  217DMC      O 2257   2.970   2.954   0.091
  217DMC      C 2258   2.989   2.846  -0.000
  217DMC      H 2259   3.137   3.002   0.437
  217DMC      H 2260   3.006   3.114   0.483
  217DMC      H 2261   2.973   2.940   0.477
  217DMC      H 2262   2.953   2.878  -0.099
  217DMC      H 2263   3.096   2.822  -0.009
  217DMC      H 2264   2.931   2.759   0.031
  218DMC      C 2265   0.909   0.297   1.221
  218DMC      O 2266   0.793   0.372   1.182
  218DMC      C 2267   0.816   0.460   1.082
  218DMC      O 2268   0.923   0.479   1.026
  218DMC      O 2269   0.699   0.524   1.054
  218DMC      C 2270   0.710   0.620   0.950
  218DMC      H 2271   0.987   0.364   1.258
  218DMC      H 2272   0.880   0.229   1.302
  218DMC      H 2273   0.946   0.238   1.138
  218DMC      H 2274   0.612   0.667   0.936
  218DMC      H 2275   0.781   0.700   0.978
  218DMC      H 2276   0.740   0.573   0.857
  219DMC      C 2277  -0.012   2.783   3.120
  219DMC      O 2278   0.022   2.648   3.086
  219DMC      C 2279   0.151   2.633   3.047
  219DMC      O 2280   0.235   2.722   3.040
  219DMC      O 2281   0.171   2.502   3.018
  219DMC      C 2282   0.303   2.472   2.976
  219DMC      H 2283   0.001   2.849   3.034
  219DMC      H 2284  -0.118   2.785   3.149
  219DMC      H 2285   0.047   2.818   3.204
  219DMC      H 2286   0.309   2.365   2.954
  219DMC      H 2287   0.328   2.527   2.884
  219DMC      H 2288   0.375   2.495   3.055
  220DMC      C 2289   0.325   0.751   1.817
  220DMC      O 2290   0.332   0.892   1.792
  220DMC      C 2291   0.243   0.965   1.863
  220DMC      O 2292   0.162   0.921   1.943
  220DMC      O 2293   0.260   1.096   1.831
  220DMC      C 2294   0.172   1.183   1.900
  220DMC      H 2295   0.226   0.712   1.790
  220DMC      H 2296   0.400   0.701   1.755
  220DMC      H 2297   0.347   0.729   1.922
  220DMC      H 2298   0.193   1.286   1.866
  220DMC      H 2299   0.068   1.161   1.875
  220DMC      H 2300   0.189   1.178   2.007
  221DMC      C 2301   1.843   1.073   0.149
  221DMC      O 2302   1.863   1.147   0.271
  221DMC      C 2303   1.791   1.261   0.277
  221DMC      O 2304   1.716   1.304   0.191
  221DMC      O 2305   1.818   1.321   0.396
  221DMC      C 2306   1.749   1.443   0.416
  221DMC      H 2307   1.874   1.133   0.063
  221DMC      H 2308   1.905   0.983   0.153
  221DMC      H 2309   1.739   1.043   0.139
  221DMC      H 2310   1.778   1.484   0.514
  221DMC      H 2311   1.777   1.517   0.339
  221DMC      H 2312   1.641   1.427   0.416
  222DMC      C 2313   2.589   0.662   1.241
  222DMC      O 2314   2.578   0.569   1.350
  222DMC      C 2315   2.659   0.598   1.454
  222DMC      O 2316   2.737   0.692   1.461
  222DMC      O 2317   2.639   0.504   1.551
  222DMC      C 2318   2.719   0.523   1.666
  222DMC      H 2319   2.690   0.662   1.200
  222DMC      H 2320   2.520   0.630   1.162
  222DMC      H 2321   2.561   0.762   1.273
  222DMC      H 2322   2.697   0.442   1.737
  222DMC      H 2323   2.826   0.516   1.641
  222DMC      H 2324   2.696   0.618   1.714
  223DMC      C 2325   2.290   3.474   2.182
  223DMC      O 2326   2.251   3.510   2.049
  223DMC      C 2327   2.300   3.429   1.953
  223DMC      O 2328   2.373   3.332   1.971
  223DMC      O 2329   2.255   3.473   1.833
  223DMC      C 2330   2.300   3.396   1.723
  223DMC      H 2331   2.399   3.479   2.192
  223DMC      H 2332   2.245   3.545   2.252
  223DMC      H 2333   2.254   3.374   2.207
  223DMC      H 2334   2.260   3.440   1.631
  223DMC      H 2335   2.410   3.399   1.716
  223DMC      H 2336   2.265   3.293   1.731
  224DMC      C 2337   0.248   0.944   3.599
  224DMC      O 2338   0.143   0.929   3.695
  224DMC      C 2339   0.144   0.809   3.759
  224DMC      O 2340   0.223   0.718   3.739
  224DMC      O 2341   0.041   0.808   3.847
  224DMC      C 2342   0.030   0.687   3.921
  224DMC      H 2343   0.238   0.869   3.520
  224DMC      H 2344   0.239   1.043   3.554
  224DMC      H 2345   0.346   0.937   3.647
  224DMC      H 2346  -0.056   0.695   3.988
  224DMC      H 2347   0.012   0.602   3.853
  224DMC      H 2348   0.120   0.670   3.980
  225DMC      C 2349   0.930   0.307   2.970
  225DMC      O 2350   0.836   0.221   2.903
  225DMC      C 2351   0.847   0.222   2.768
  225DMC      O 2352   0.927   0.288   2.703
  225DMC      O 2353   0.754   0.138   2.717
  225DMC      C 2354   0.755   0.130   2.576
  225DMC      H 2355   0.915   0.411   2.940
  225DMC      H 2356   0.913   0.299   3.077
  225DMC      H 2357   1.033   0.275   2.948
  225DMC      H 2358   0.676   0.060   2.545
  225DMC      H 2359   0.732   0.228   2.531
  225DMC      H 2360   0.851   0.092   2.540
  226DMC      C 2361   4.025   1.309   0.330
  226DMC      O 2362   3.903   1.242   0.295
  226DMC      C 2363   3.803   1.262   0.383
  226DMC      O 2364   3.809   1.328   0.485
  226DMC      O 2365   3.693   1.194   0.339
  226DMC      C 2366   3.580   1.206   0.423
  226DMC      H 2367   4.063   1.272   0.426
  226DMC      H 2368   4.099   1.288   0.253
  226DMC      H 2369   4.010   1.417   0.334
  226DMC      H 2370   3.498   1.148   0.380
  226DMC      H 2371   3.602   1.165   0.523
  226DMC      H 2372   3.549   1.311   0.431
  227DMC      C 2373   0.677   1.506   1.471
  227DMC      O 2374   0.740   1.562   1.586
  227DMC      C 2375   0.665   1.552   1.699
  227DMC      O 2376   0.554   1.502   1.707
  227DMC      O 2377   0.736   1.608   1.801
  227DMC      C 2378   0.668   1.605   1.926
  227DMC      H 2379   0.583   1.558   1.448
  227DMC      H 2380   0.744   1.518   1.385
  227DMC      H 2381   0.659   1.399   1.485
  227DMC      H 2382   0.732   1.653   2.001
  227DMC      H 2383   0.574   1.661   1.920
  227DMC      H 2384   0.649   1.502   1.957
  228DMC      C 2385   3.297   2.017   3.429
  228DMC      O 2386   3.216   2.039   3.313
  228DMC      C 2387   3.286   2.047   3.198
  228DMC      O 2388   3.408   2.038   3.187
  228DMC      O 2389   3.199   2.069   3.096
  228DMC      C 2390   3.261   2.079   2.969
  228DMC      H 2391   3.368   2.099   3.444
  228DMC      H 2392   3.231   2.011   3.516
  228DMC      H 2393   3.350   1.922   3.421
  228DMC      H 2394   3.182   2.097   2.894
  228DMC      H 2395   3.330   2.165   2.967
  228DMC      H 2396   3.313   1.987   2.943
  229DMC      C 2397   2.006   3.048   1.793
  229DMC      O 2398   2.016   2.924   1.863
  229DMC      C 2399   2.067   2.823   1.789
  229DMC      O 2400   2.101   2.830   1.672
  229DMC      O 2401   2.072   2.711   1.867
  229DMC      C 2402   2.123   2.597   1.800
  229DMC      H 2403   1.938   3.038   1.707
  229DMC      H 2404   1.965   3.123   1.861
  229DMC      H 2405   2.104   3.082   1.759
  229DMC      H 2406   2.123   2.513   1.871
  229DMC      H 2407   2.059   2.570   1.715
  229DMC      H 2408   2.226   2.614   1.767
  230DMC      C 2409   0.158   0.972   0.506
  230DMC      O 2410   0.297   1.002   0.486
  230DMC      C 2411   0.380   0.898   0.511
  230DMC      O 2412   0.345   0.787   0.549
  230DMC      O 2413   0.507   0.938   0.489
  230DMC      C 2414   0.605   0.838   0.512
  230DMC      H 2415   0.139   0.944   0.610
  230DMC      H 2416   0.100   1.062   0.483
  230DMC      H 2417   0.126   0.892   0.439
  230DMC      H 2418   0.704   0.880   0.492
  230DMC      H 2419   0.602   0.806   0.617
  230DMC      H 2420   0.589   0.753   0.445
  231DMC      C 2421   1.242   3.635   3.312
  231DMC      O 2422   1.150   3.536   3.363
  231DMC      C 2423   1.136   3.541   3.498
  231DMC      O 2424   1.193   3.618   3.574
  231DMC      O 2425   1.047   3.444   3.534
  231DMC      C 2426   1.023   3.438   3.674
  231DMC      H 2427   1.342   3.619   3.353
  231DMC      H 2428   1.246   3.623   3.203
  231DMC      H 2429   1.206   3.735   3.334
  231DMC      H 2430   0.952   3.357   3.692
  231DMC      H 2431   1.116   3.414   3.728
  231DMC      H 2432   0.980   3.532   3.709
  232DMC      C 2433   2.168   1.605   3.443
  232DMC      O 2434   2.040   1.563   3.493
  232DMC      C 2435   1.980   1.471   3.415
  232DMC      O 2436   2.024   1.425   3.311
  232DMC      O 2437   1.861   1.438   3.472
  232DMC      C 2438   1.786   1.342   3.399
  232DMC      H 2439   2.158   1.653   3.345
  232DMC      H 2440   2.209   1.679   3.513
  232DMC      H 2441   2.237   1.521   3.438
  232DMC      H 2442   1.692   1.324   3.453
  232DMC      H 2443   1.761   1.380   3.299
  232DMC      H 2444   1.841   1.248   3.392
  233DMC      C 2445   2.557   1.329   0.074
  233DMC      O 2446   2.544   1.273   0.205
  233DMC      C 2447   2.549   1.365   0.305
  233DMC      O 2448   2.564   1.486   0.290
  233DMC      O 2449   2.535   1.300   0.423
  233DMC      C 2450   2.539   1.386   0.536
  233DMC      H 2451   2.654   1.379   0.063
  233DMC      H 2452   2.552   1.248   0.001
  233DMC      H 2453   2.476   1.399   0.054
  233DMC      H 2454   2.528   1.324   0.626
  233DMC      H 2455   2.636   1.437   0.542
  233DMC      H 2456   2.457   1.458   0.533
  234DMC      C 2457   1.825   0.299   2.722
  234DMC      O 2458   1.904   0.311   2.840
  234DMC      C 2459   1.832   0.340   2.951
  234DMC      O 2460   1.711   0.357   2.956
  234DMC      O 2461   1.917   0.349   3.056
  234DMC      C 2462   1.854   0.380   3.179
  234DMC      H 2463   1.773   0.393   2.699
  234DMC      H 2464   1.891   0.275   2.638
  234DMC      H 2465   1.752   0.217   2.732
  234DMC      H 2466   1.931   0.386   3.257
  234DMC      H 2467   1.804   0.478   3.174
  234DMC      H 2468   1.783   0.302   3.207
  235DMC      C 2469   0.597   0.454   3.318
  235DMC      O 2470   0.691   0.370   3.388
  235DMC      C 2471   0.633   0.265   3.450
  235DMC      O 2472   0.514   0.239   3.451
  235DMC      O 2473   0.731   0.194   3.512
  235DMC      C 2474   0.684   0.080   3.582
  235DMC      H 2475   0.525   0.497   3.387
  235DMC      H 2476   0.653   0.535   3.271
  235DMC      H 2477   0.546   0.397   3.240
  235DMC      H 2478   0.770   0.030   3.629
  235DMC      H 2479   0.614   0.110   3.662
  235DMC      H 2480   0.636   0.010   3.514
  236DMC      C 2481   0.808   1.414   0.902
  236DMC      O 2482   0.802   1.303   0.992
  236DMC      C 2483   0.728   1.326   1.103
  236DMC      O 2484   0.671   1.430   1.130
  236DMC      O 2485   0.730   1.214   1.179
  236DMC      C 2486   0.656   1.225   1.300
  236DMC      H 2487   0.855   1.501   0.950
  236DMC      H 2488   0.869   1.386   0.816
  236DMC      H 2489   0.708   1.440   0.866
  236DMC      H 2490   0.665   1.130   1.354
  236DMC      H 2491   0.699   1.304   1.363
  236DMC      H 2492   0.551   1.244   1.279
  237DMC      C 2493   0.934   3.257   3.212
  237DMC      O 2494   1.060   3.194   3.186
  237DMC      C 2495   1.113   3.134   3.295
  237DMC      O 2496   1.065   3.131   3.407
  237DMC      O 2497   1.231   3.077   3.258
  237DMC      C 2498   1.299   3.011   3.363
  237DMC      H 2499   0.945   3.337   3.287
  237DMC      H 2500   0.898   3.303   3.119
  237DMC      H 2501   0.860   3.184   3.245
  237DMC      H 2502   1.393   2.969   3.323
  237DMC      H 2503   1.324   3.081   3.443
  237DMC      H 2504   1.238   2.928   3.402
  238DMC      C 2505   2.326   0.188   2.510
  238DMC      O 2506   2.290   0.142   2.379
  238DMC      C 2507   2.391   0.153   2.289
  238DMC      O 2508   2.503   0.197   2.311
  238DMC      O 2509   2.346   0.106   2.170
  238DMC      C 2510   2.442   0.112   2.066
  238DMC      H 2511   2.352   0.295   2.508
  238DMC      H 2512   2.239   0.175   2.575
  238DMC      H 2513   2.408   0.129   2.551
  238DMC      H 2514   2.396   0.072   1.974
  238DMC      H 2515   2.472   0.216   2.047
  238DMC      H 2516   2.529   0.050   2.090
  239DMC      C 2517   0.586   2.219   2.038
  239DMC      O 2518   0.462   2.164   2.084
  239DMC      C 2519   0.474   2.089   2.196
  239DMC      O 2520   0.578   2.065   2.256
  239DMC      O 2521   0.350   2.044   2.230
  239DMC      C 2522   0.349   1.963   2.346
  239DMC      H 2523   0.656   2.139   2.012
  239DMC      H 2524   0.567   2.278   1.948
  239DMC      H 2525   0.630   2.285   2.113
  239DMC      H 2526   0.245   1.931   2.364
  239DMC      H 2527   0.410   1.872   2.331
  239DMC      H 2528   0.384   2.019   2.433
  240DMC      C 2529   0.451   2.655   3.294
  240DMC      O 2530   0.454   2.537   3.376
  240DMC      C 2531   0.378   2.436   3.329
  240DMC      O 2532   0.311   2.438   3.227
  240DMC      O 2533   0.389   2.331   3.415
  240DMC      C 2534   0.313   2.217   3.376
  240DMC      H 2535   0.349   2.695   3.287
  240DMC      H 2536   0.515   2.730   3.340
  240DMC      H 2537   0.490   2.633   3.194
  240DMC      H 2538   0.328   2.139   3.452
  240DMC      H 2539   0.206   2.241   3.373
  240DMC      H 2540   0.347   2.179   3.280
  241DMC      C 2541   2.015   2.847   3.640
  241DMC      O 2542   1.884   2.793   3.662
  241DMC      C 2543   1.882   2.659   3.678
  241DMC      O 2544   1.979   2.585   3.674
  241DMC      O 2545   1.753   2.621   3.697
  241DMC      C 2546   1.737   2.481   3.715
  241DMC      H 2547   2.060   2.806   3.549
  241DMC      H 2548   2.007   2.955   3.629
  241DMC      H 2549   2.080   2.826   3.726
  241DMC      H 2550   1.630   2.460   3.730
  241DMC      H 2551   1.770   2.426   3.626
  241DMC      H 2552   1.791   2.447   3.804
  242DMC      C 2553   2.969   1.915   2.313
  242DMC      O 2554   3.058   1.899   2.423
  242DMC      C 2555   3.001   1.924   2.543
  242DMC      O 2556   2.886   1.959   2.562
  242DMC      O 2557   3.095   1.904   2.640
  242DMC      C 2558   3.048   1.928   2.772
  242DMC      H 2559   2.933   2.019   2.307
  242DMC      H 2560   3.023   1.892   2.221
  242DMC      H 2561   2.884   1.847   2.320
  242DMC      H 2562   3.131   1.911   2.841
  242DMC      H 2563   3.016   2.033   2.783
  242DMC      H 2564   2.966   1.860   2.796
  243DMC      C 2565   3.919   3.606   1.711
  243DMC      O 2566   3.913   3.748   1.695
  243DMC      C 2567   3.800   3.792   1.635
  243DMC      O 2568   3.708   3.721   1.596
  243DMC      O 2569   3.806   3.927   1.626
  243DMC      C 2570   3.692   3.986   1.564
  243DMC      H 2571   3.916   3.556   1.614
  243DMC      H 2572   4.013   3.581   1.761
  243DMC      H 2573   3.837   3.571   1.774
  243DMC      H 2574   3.707   4.094   1.561
  243DMC      H 2575   3.682   3.950   1.461
  243DMC      H 2576   3.602   3.965   1.622
  244DMC      C 2577   0.557   1.882   1.644
  244DMC      O 2578   0.653   1.850   1.543
  244DMC      C 2579   0.623   1.900   1.421
  244DMC      O 2580   0.525   1.966   1.393
  244DMC      O 2581   0.722   1.863   1.335
  244DMC      C 2582   0.702   1.909   1.202
  244DMC      H 2583   0.459   1.840   1.619
  244DMC      H 2584   0.590   1.838   1.739
  244DMC      H 2585   0.550   1.990   1.658
  244DMC      H 2586   0.786   1.873   1.141
  244DMC      H 2587   0.609   1.867   1.160
  244DMC      H 2588   0.700   2.018   1.199
  245DMC      C 2589   3.793   3.174   3.652
  245DMC      O 2590   3.657   3.177   3.697
  245DMC      C 2591   3.640   3.245   3.813
  245DMC      O 2592   3.728   3.299   3.878
  245DMC      O 2593   3.508   3.241   3.845
  245DMC      C 2594   3.476   3.309   3.966
  245DMC      H 2595   3.857   3.124   3.725
  245DMC      H 2596   3.796   3.118   3.558
  245DMC      H 2597   3.830   3.275   3.633
  245DMC      H 2598   3.368   3.299   3.983
  245DMC      H 2599   3.528   3.262   4.051
  245DMC      H 2600   3.501   3.415   3.959
  246DMC      C 2601   0.302   2.458   0.048
  246DMC      O 2602   0.325   2.573   0.131
  246DMC      C 2603   0.450   2.580   0.181
  246DMC      O 2604   0.540   2.500   0.161
  246DMC      O 2605   0.459   2.693   0.257
  246DMC      C 2606   0.587   2.712   0.315
  246DMC      H 2607   0.317   2.366   0.105
  246DMC      H 2608   0.199   2.461   0.013
  246DMC      H 2609   0.368   2.460  -0.039
  246DMC      H 2610   0.584   2.805   0.375
  246DMC      H 2611   0.612   2.629   0.383
  246DMC      H 2612   0.663   2.724   0.238
  247DMC      C 2613   3.226   0.210   3.531
  247DMC      O 2614   3.201   0.175   3.668
  247DMC      C 2615   3.095   0.240   3.722
  247DMC      O 2616   3.024   0.322   3.665
  247DMC      O 2617   3.081   0.199   3.851
  247DMC      C 2618   2.973   0.260   3.919
  247DMC      H 2619   3.249   0.317   3.522
  247DMC      H 2620   3.313   0.153   3.497
  247DMC      H 2621   3.141   0.184   3.469
  247DMC      H 2622   2.970   0.221   4.022
  247DMC      H 2623   2.987   0.369   3.925
  247DMC      H 2624   2.878   0.235   3.871
  248DMC      C 2625   2.698   2.809   0.141
  248DMC      O 2626   2.564   2.799   0.191
  248DMC      C 2627   2.557   2.750   0.317
  248DMC      O 2628   2.652   2.715   0.386
  248DMC      O 2629   2.427   2.745   0.354
  248DMC      C 2630   2.405   2.695   0.485
  248DMC      H 2631   2.746   2.710   0.136
  248DMC      H 2632   2.693   2.849   0.039
  248DMC      H 2633   2.757   2.877   0.202
  248DMC      H 2634   2.297   2.695   0.504
  248DMC      H 2635   2.441   2.592   0.493
  248DMC      H 2636   2.454   2.759   0.559
  249DMC      C 2637   0.752   0.899   0.301
  249DMC      O 2638   0.639   0.837   0.239
  249DMC      C 2639   0.579   0.915   0.145
  249DMC      O 2640   0.614   1.028   0.113
  249DMC      O 2641   0.474   0.846   0.094
  249DMC      C 2642   0.402   0.918  -0.006
  249DMC      H 2643   0.723   0.990   0.353
  249DMC      H 2644   0.794   0.828   0.374
  249DMC      H 2645   0.830   0.920   0.227
  249DMC      H 2646   0.319   0.854  -0.040
  249DMC      H 2647   0.359   1.010   0.036
  249DMC      H 2648   0.466   0.940  -0.091
  250DMC      C 2649   2.577   1.763   0.250
  250DMC      O 2650   2.635   1.894   0.252
  250DMC      C 2651   2.690   1.930   0.134
  250DMC      O 2652   2.695   1.862   0.032
  250DMC      O 2653   2.741   2.056   0.147
  250DMC      C 2654   2.803   2.106   0.030
  250DMC      H 2655   2.653   1.687   0.229
  250DMC      H 2656   2.534   1.743   0.349
  250DMC      H 2657   2.496   1.757   0.177
  250DMC      H 2658   2.841   2.206   0.052
  250DMC      H 2659   2.889   2.043   0.002
  250DMC      H 2660   2.731   2.113  -0.052
  251DMC      C 2661   3.122   3.020   2.333
  251DMC      O 2662   3.099   2.947   2.211
  251DMC      C 2663   3.082   3.027   2.103
  251DMC      O 2664   3.083   3.149   2.102
  251DMC      O 2665   3.062   2.947   1.995
  251DMC      C 2666   3.042   3.018   1.874
  251DMC      H 2667   3.036   3.083   2.356
  251DMC      H 2668   3.135   2.948   2.414
  251DMC      H 2669   3.212   3.080   2.325
  251DMC      H 2670   3.026   2.945   1.793
  251DMC      H 2671   2.952   3.081   1.880
  251DMC      H 2672   3.129   3.078   1.849
  252DMC      C 2673   1.344   0.346   0.993
  252DMC      O 2674   1.291   0.349   0.860
  252DMC      C 2675   1.283   0.473   0.807
  252DMC      O 2676   1.315   0.577   0.863
  252DMC      O 2677   1.232   0.462   0.682
  252DMC      C 2678   1.217   0.586   0.615
  252DMC      H 2679   1.280   0.403   1.062
  252DMC      H 2680   1.347   0.242   1.027
  252DMC      H 2681   1.446   0.386   0.995
  252DMC      H 2682   1.175   0.567   0.515
  252DMC      H 2683   1.148   0.652   0.669
  252DMC      H 2684   1.314   0.635   0.602
  253DMC      C 2685   3.239   0.767   3.178
  253DMC      O 2686   3.137   0.806   3.085
  253DMC      C 2687   3.160   0.763   2.958
  253DMC      O 2688   3.257   0.699   2.921
  253DMC      O 2689   3.057   0.806   2.880
  253DMC      C 2690   3.070   0.768   2.744
  253DMC      H 2691   3.335   0.810   3.150
  253DMC      H 2692   3.211   0.805   3.277
  253DMC      H 2693   3.246   0.658   3.184
  253DMC      H 2694   2.983   0.807   2.689
  253DMC      H 2695   3.160   0.812   2.700
  253DMC      H 2696   3.071   0.659   2.734
  254DMC      C 2697   0.458   0.396   1.229
  254DMC      O 2698   0.348   0.485   1.248
  254DMC      C 2699   0.381   0.600   1.312
  254DMC      O 2700   0.492   0.629   1.354
  254DMC      O 2701   0.269   0.676   1.323
  254DMC      C 2702   0.289   0.799   1.390
  254DMC      H 2703   0.499   0.364   1.326
  254DMC      H 2704   0.422   0.307   1.177
  254DMC      H 2705   0.536   0.442   1.169
  254DMC      H 2706   0.194   0.853   1.394
  254DMC      H 2707   0.323   0.782   1.493
  254DMC      H 2708   0.361   0.861   1.335
  255DMC      C 2709   2.216   2.485   2.138
  255DMC      O 2710   2.254   2.513   2.003
  255DMC      C 2711   2.386   2.495   1.979
  255DMC      O 2712   2.470   2.459   2.060
  255DMC      O 2713   2.409   2.524   1.848
  255DMC      C 2714   2.545   2.510   1.809
  255DMC      H 2715   2.268   2.552   2.208
  255DMC      H 2716   2.108   2.502   2.148
  255DMC      H 2717   2.236   2.381   2.163
  255DMC      H 2718   2.553   2.536   1.703
  255DMC      H 2719   2.609   2.578   1.866
  255DMC      H 2720   2.578   2.406   1.822
  256DMC      C 2721   2.679   0.311   1.007
  256DMC      O 2722   2.687   0.359   0.872
  256DMC      C 2723   2.767   0.284   0.792
  256DMC      O 2724   2.829   0.185   0.826
  256DMC      O 2725   2.766   0.340   0.668
  256DMC      C 2726   2.846   0.270   0.574
  256DMC      H 2727   2.777   0.312   1.054
  256DMC      H 2728   2.612   0.377   1.063
  256DMC      H 2729   2.637   0.210   1.009
  256DMC      H 2730   2.840   0.323   0.478
  256DMC      H 2731   2.952   0.271   0.605
  256DMC      H 2732   2.811   0.168   0.560
  257DMC      C 2733   0.474   3.614   2.073
  257DMC      O 2734   0.539   3.554   2.186
  257DMC      C 2735   0.647   3.480   2.153
  257DMC      O 2736   0.690   3.462   2.040
  257DMC      O 2737   0.700   3.429   2.267
  257DMC      C 2738   0.815   3.349   2.246
  257DMC      H 2739   0.437   3.537   2.004
  257DMC      H 2740   0.388   3.671   2.110
  257DMC      H 2741   0.541   3.683   2.022
  257DMC      H 2742   0.850   3.312   2.344
  257DMC      H 2743   0.791   3.262   2.184
  257DMC      H 2744   0.896   3.408   2.201
  258DMC      C 2745   3.054   2.438   3.342
  258DMC      O 2746   3.147   2.398   3.444
  258DMC      C 2747   3.163   2.489   3.542
  258DMC      O 2748   3.108   2.598   3.549
  258DMC      O 2749   3.252   2.439   3.632
  258DMC      C 2750   3.279   2.526   3.741
  258DMC      H 2751   3.089   2.529   3.292
  258DMC      H 2752   3.048   2.358   3.268
  258DMC      H 2753   2.955   2.454   3.385
  258DMC      H 2754   3.352   2.478   3.807
  258DMC      H 2755   3.322   2.621   3.705
  258DMC      H 2756   3.187   2.545   3.798
  259DMC      C 2757   3.667   2.308   3.841
  259DMC      O 2758   3.784   2.380   3.799
  259DMC      C 2759   3.775   2.514   3.819
  259DMC      O 2760   3.679   2.573   3.866
  259DMC      O 2761   3.891   2.571   3.776
  259DMC      C 2762   3.894   2.712   3.791
  259DMC      H 2763   3.580   2.340   3.784
  259DMC      H 2764   3.684   2.201   3.822
  259DMC      H 2765   3.650   2.321   3.948
  259DMC      H 2766   3.991   2.748   3.753
  259DMC      H 2767   3.815   2.759   3.731
  259DMC      H 2768   3.885   2.740   3.896
  260DMC      C 2769   3.213   1.608   2.646
  260DMC      O 2770   3.144   1.656   2.762
  260DMC      C 2771   3.106   1.557   2.847
  260DMC      O 2772   3.125   1.438   2.832
  260DMC      O 2773   3.042   1.615   2.952
  260DMC      C 2774   2.996   1.522   3.049
  260DMC      H 2775   3.150   1.541   2.587
  260DMC      H 2776   3.240   1.694   2.584
  260DMC      H 2777   3.305   1.557   2.675
  260DMC      H 2778   2.945   1.578   3.129
  260DMC      H 2779   2.923   1.453   3.005
  260DMC      H 2780   3.080   1.468   3.093
  261DMC      C 2781   2.089   1.657   0.150
  261DMC      O 2782   2.141   1.684   0.281
  261DMC      C 2783   2.211   1.800   0.289
  261DMC      O 2784   2.232   1.878   0.197
  261DMC      O 2785   2.255   1.814   0.417
  261DMC      C 2786   2.331   1.932   0.439
  261DMC      H 2787   2.170   1.648   0.077
  261DMC      H 2788   2.034   1.563   0.154
  261DMC      H 2789   2.019   1.736   0.120
  261DMC      H 2790   2.362   1.934   0.544
  261DMC      H 2791   2.421   1.932   0.376
  261DMC      H 2792   2.270   2.021   0.419
  262DMC      C 2793   3.402   0.668   3.375
  262DMC      O 2794   3.500   0.613   3.464
  262DMC      C 2795   3.485   0.653   3.592
  262DMC      O 2796   3.400   0.730   3.634
  262DMC      O 2797   3.583   0.594   3.666
  262DMC      C 2798   3.579   0.628   3.804
  262DMC      H 2799   3.410   0.777   3.372
  262DMC      H 2800   3.422   0.630   3.274
  262DMC      H 2801   3.302   0.637   3.404
  262DMC      H 2802   3.662   0.576   3.854
  262DMC      H 2803   3.594   0.736   3.817
  262DMC      H 2804   3.485   0.596   3.849
  263DMC      C 2805   3.507   0.576   1.388
  263DMC      O 2806   3.533   0.612   1.524
  263DMC      C 2807   3.440   0.694   1.577
  263DMC      O 2808   3.341   0.737   1.520
  263DMC      O 2809   3.475   0.721   1.706
  263DMC      C 2810   3.385   0.807   1.774
  263DMC      H 2811   3.505   0.664   1.324
  263DMC      H 2812   3.587   0.510   1.354
  263DMC      H 2813   3.412   0.522   1.380
  263DMC      H 2814   3.423   0.823   1.875
  263DMC      H 2815   3.380   0.905   1.724
  263DMC      H 2816   3.286   0.762   1.780
  264DMC      C 2817   2.846   1.509   0.958
  264DMC      O 2818   2.871   1.642   0.912
  264DMC      C 2819   2.848   1.737   1.006
  264DMC      O 2820   2.807   1.718   1.119
  264DMC      O 2821   2.876   1.858   0.951
  264DMC      C 2822   2.855   1.967   1.039
  264DMC      H 2823   2.740   1.497   0.986
  264DMC      H 2824   2.868   1.439   0.876
  264DMC      H 2825   2.910   1.484   1.043
  264DMC      H 2826   2.880   2.060   0.985
  264DMC      H 2827   2.749   1.973   1.069
  264DMC      H 2828   2.920   1.959   1.126
  265DMC      C 2829   2.394   1.352   2.427
  265DMC      O 2830   2.444   1.218   2.414
  265DMC      C 2831   2.441   1.170   2.288
  265DMC      O 2832   2.400   1.230   2.189
  265DMC      O 2833   2.491   1.044   2.289
  265DMC      C 2834   2.493   0.982   2.162
  265DMC      H 2835   2.289   1.357   2.396
  265DMC      H 2836   2.400   1.382   2.532
  265DMC      H 2837   2.454   1.421   2.368
  265DMC      H 2838   2.534   0.881   2.174
  265DMC      H 2839   2.391   0.972   2.122
  265DMC      H 2840   2.557   1.037   2.093
  266DMC      C 2841   1.636   0.933   3.612
  266DMC      O 2842   1.508   0.994   3.638
  266DMC      C 2843   1.508   1.128   3.620
  266DMC      O 2844   1.603   1.196   3.588
  266DMC      O 2845   1.383   1.173   3.647
  266DMC      C 2846   1.368   1.314   3.633
  266DMC      H 2847   1.712   0.971   3.681
  266DMC      H 2848   1.626   0.825   3.628
  266DMC      H 2849   1.666   0.949   3.509
  266DMC      H 2850   1.265   1.340   3.657
  266DMC      H 2851   1.434   1.366   3.704
  266DMC      H 2852   1.389   1.345   3.531
  267DMC      C 2853   1.666   3.625   2.462
  267DMC      O 2854   1.622   3.736   2.542
  267DMC      C 2855   1.666   3.732   2.670
  267DMC      O 2856   1.735   3.644   2.719
  267DMC      O 2857   1.619   3.842   2.734
  267DMC      C 2858   1.658   3.849   2.870
  267DMC      H 2859   1.627   3.531   2.503
  267DMC      H 2860   1.626   3.638   2.361
  267DMC      H 2861   1.774   3.622   2.456
  267DMC      H 2862   1.614   3.941   2.913
  267DMC      H 2863   1.617   3.764   2.926
  267DMC      H 2864   1.766   3.854   2.880
  268DMC      C 2865   2.492   3.287   3.636
  268DMC      O 2866   2.457   3.421   3.598
  268DMC      C 2867   2.415   3.498   3.701
  268DMC      O 2868   2.406   3.462   3.818
  268DMC      O 2869   2.385   3.621   3.653
  268DMC      C 2870   2.339   3.712   3.752
  268DMC      H 2871   2.406   3.235   3.679
  268DMC      H 2872   2.525   3.234   3.546
  268DMC      H 2873   2.575   3.288   3.707
  268DMC      H 2874   2.317   3.807   3.703
  268DMC      H 2875   2.247   3.675   3.798
  268DMC      H 2876   2.417   3.728   3.827
  269DMC      C 2877   0.376   3.646   0.065
  269DMC      O 2878   0.366   3.638   0.208
  269DMC      C 2879   0.434   3.736   0.272
  269DMC      O 2880   0.499   3.825   0.220
  269DMC      O 2881   0.417   3.717   0.406
  269DMC      C 2882   0.484   3.814   0.486
  269DMC      H 2883   0.480   3.636   0.032
  269DMC      H 2884   0.318   3.564   0.022
  269DMC      H 2885   0.333   3.740   0.029
  269DMC      H 2886   0.465   3.790   0.591
  269DMC      H 2887   0.593   3.809   0.469
  269DMC      H 2888   0.446   3.914   0.465
  270DMC      C 2889   0.541   3.383   2.851
  270DMC      O 2890   0.541   3.513   2.912
  270DMC      C 2891   0.417   3.561   2.938
  270DMC      O 2892   0.311   3.505   2.912
  270DMC      O 2893   0.430   3.683   2.996
  270DMC      C 2894   0.306   3.745   3.027
  270DMC      H 2895   0.490   3.387   2.754
  270DMC      H 2896   0.645   3.353   2.835
  270DMC      H 2897   0.493   3.310   2.916
  270DMC      H 2898   0.327   3.843   3.072
  270DMC      H 2899   0.247   3.763   2.936
  270DMC      H 2900   0.250   3.685   3.099
  271DMC      C 2901   1.915   1.859   2.508
  271DMC      O 2902   1.826   1.966   2.542
  271DMC      C 2903   1.710   1.964   2.473
  271DMC      O 2904   1.678   1.882   2.388
  271DMC      O 2905   1.634   2.070   2.513
  271DMC      C 2906   1.509   2.079   2.447
  271DMC      H 2907   1.944   1.864   2.403
  271DMC      H 2908   2.005   1.869   2.569
  271DMC      H 2909   1.869   1.762   2.531
  271DMC      H 2910   1.457   2.168   2.487
  271DMC      H 2911   1.523   2.093   2.339
  271DMC      H 2912   1.448   1.991   2.468
  272DMC      C 2913   2.069   0.683   0.420
  272DMC      O 2914   2.196   0.744   0.449
  272DMC      C 2915   2.212   0.865   0.389
  272DMC      O 2916   2.132   0.920   0.316
  272DMC      O 2917   2.334   0.913   0.424
  272DMC      C 2918   2.365   1.039   0.367
  272DMC      H 2919   2.059   0.664   0.313
  272DMC      H 2920   2.065   0.587   0.473
  272DMC      H 2921   1.987   0.745   0.456
  272DMC      H 2922   2.465   1.069   0.400
  272DMC      H 2923   2.366   1.033   0.257
  272DMC      H 2924   2.293   1.115   0.401
  273DMC      C 2925   1.643   0.082   1.295
  273DMC      O 2926   1.668   0.086   1.154
  273DMC      C 2927   1.613   0.193   1.093
  273DMC      O 2928   1.547   0.281   1.147
  273DMC      O 2929   1.643   0.186   0.960
  273DMC      C 2930   1.591   0.294   0.884
  273DMC      H 2931   1.536   0.076   1.316
  273DMC      H 2932   1.692  -0.008   1.336
  273DMC      H 2933   1.687   0.169   1.345
  273DMC      H 2934   1.619   0.278   0.779
  273DMC      H 2935   1.481   0.295   0.889
  273DMC      H 2936   1.632   0.389   0.918
  274DMC      C 2937   0.229   1.505   3.218
  274DMC      O 2938   0.339   1.413   3.209
  274DMC      C 2939   0.369   1.377   3.082
  274DMC      O 2940   0.312   1.414   2.981
  274DMC      O 2941   0.474   1.290   3.087
  274DMC      C 2942   0.515   1.243   2.960
  274DMC      H 2943   0.138   1.461   3.178
  274DMC      H 2944   0.213   1.529   3.323
  274DMC      H 2945   0.253   1.598   3.165
  274DMC      H 2946   0.599   1.174   2.975
  274DMC      H 2947   0.434   1.188   2.910
  274DMC      H 2948   0.549   1.326   2.898
  275DMC      C 2949   0.445   0.421   2.831
  275DMC      O 2950   0.395   0.322   2.740
  275DMC      C 2951   0.289   0.364   2.668
  275DMC      O 2952   0.236   0.474   2.675
  275DMC      O 2953   0.250   0.263   2.585
  275DMC      C 2954   0.139   0.294   2.504
  275DMC      H 2955   0.369   0.448   2.904
  275DMC      H 2956   0.531   0.377   2.884
  275DMC      H 2957   0.480   0.509   2.777
  275DMC      H 2958   0.116   0.206   2.442
  275DMC      H 2959   0.051   0.316   2.566
  275DMC      H 2960   0.162   0.378   2.437
  276DMC      C 2961   1.883   3.035   1.052
  276DMC      O 2962   1.953   3.156   1.087
  276DMC      C 2963   2.025   3.209   0.986
  276DMC      O 2964   2.034   3.163   0.873
  276DMC      O 2965   2.085   3.322   1.031
  276DMC      C 2966   2.164   3.388   0.934
  276DMC      H 2967   1.954   2.957   1.022
  276DMC      H 2968   1.829   3.000   1.140
  276DMC      H 2969   1.811   3.055   0.972
  276DMC      H 2970   2.209   3.477   0.980
  276DMC      H 2971   2.246   3.323   0.900
  276DMC      H 2972   2.103   3.420   0.850
  277DMC      C 2973   2.779   3.826   0.191
  277DMC      O 2974   2.750   3.735   0.085
  277DMC      C 2975   2.860   3.683   0.025
  277DMC      O 2976   2.976   3.709   0.054
  277DMC      O 2977   2.819   3.599  -0.074
  277DMC      C 2978   2.926   3.539  -0.145
  277DMC      H 2979   2.835   3.912   0.154
  277DMC      H 2980   2.684   3.861   0.233
  277DMC      H 2981   2.835   3.775   0.271
  277DMC      H 2982   2.883   3.473  -0.222
  277DMC      H 2983   2.987   3.615  -0.196
  277DMC      H 2984   2.987   3.478  -0.079
  278DMC      C 2985   0.723   2.969   2.364
  278DMC      O 2986   0.808   2.907   2.461
  278DMC      C 2987   0.745   2.815   2.538
  278DMC      O 2988   0.626   2.785   2.531
  278DMC      O 2989   0.835   2.763   2.625
  278DMC      C 2990   0.781   2.665   2.713
  278DMC      H 2991   0.642   3.023   2.413
  278DMC      H 2992   0.783   3.041   2.307
  278DMC      H 2993   0.683   2.895   2.295
  278DMC      H 2994   0.861   2.630   2.779
  278DMC      H 2995   0.702   2.709   2.775
  278DMC      H 2996   0.743   2.580   2.656
  279DMC      C 2997   1.916   2.249   1.712
  279DMC      O 2998   1.847   2.222   1.589
  279DMC      C 2999   1.907   2.126   1.513
  279DMC      O 3000   2.010   2.067   1.542
  279DMC      O 3001   1.833   2.109   1.401
  279DMC      C 3002   1.886   2.011   1.312
  279DMC      H 3003   2.017   2.287   1.692
  279DMC      H 3004   1.860   2.327   1.765
  279DMC      H 3005   1.920   2.160   1.775
  279DMC      H 3006   1.820   2.005   1.225
  279DMC      H 3007   1.986   2.040   1.277
  279DMC      H 3008   1.889   1.913   1.361
  280DMC      C 3009   3.031   2.541   2.622
  280DMC      O 3010   2.973   2.554   2.492
  280DMC      C 3011   2.839   2.569   2.493
  280DMC      O 3012   2.768   2.572   2.593
  280DMC      O 3013   2.796   2.581   2.365
  280DMC      C 3014   2.656   2.598   2.353
  280DMC      H 3015   2.992   2.452   2.673
  280DMC      H 3016   3.139   2.529   2.611
  280DMC      H 3017   3.013   2.630   2.682
  280DMC      H 3018   2.631   2.605   2.246
  280DMC      H 3019   2.603   2.510   2.393
  280DMC      H 3020   2.623   2.689   2.402
  281DMC      C 3021   2.564   0.232   1.614
  281DMC      O 3022   2.566   0.316   1.731
  281DMC      C 3023   2.450   0.381   1.754
  281DMC      O 3024   2.349   0.374   1.685
  281DMC      O 3025   2.464   0.456   1.866
  281DMC      C 3026   2.348   0.530   1.901
  281DMC      H 3027   2.546   0.292   1.524
  281DMC      H 3028   2.662   0.184   1.605
  281DMC      H 3029   2.489   0.154   1.625
  281DMC      H 3030   2.370   0.587   1.992
  281DMC      H 3031   2.323   0.601   1.821
  281DMC      H 3032   2.265   0.463   1.921
  282DMC      C 3033   2.908   1.026   1.777
  282DMC      O 3034   2.860   0.893   1.801
  282DMC      C 3035   2.942   0.819   1.880
  282DMC      O 3036   3.048   0.856   1.929
  282DMC      O 3037   2.886   0.696   1.896
  282DMC      C 3038   2.962   0.609   1.977
  282DMC      H 3039   3.005   1.024   1.725
  282DMC      H 3040   2.836   1.077   1.713
  282DMC      H 3041   2.917   1.082   1.871
  282DMC      H 3042   2.909   0.512   1.982
  282DMC      H 3043   3.061   0.590   1.932
  282DMC      H 3044   2.972   0.649   2.078
  283DMC      C 3045   1.341   3.331   0.400
  283DMC      O 3046   1.425   3.414   0.319
  283DMC      C 3047   1.358   3.490   0.230
  283DMC      O 3048   1.237   3.492   0.215
  283DMC      O 3049   1.448   3.564   0.160
  283DMC      C 3050   1.390   3.648   0.062
  283DMC      H 3051   1.284   3.261   0.338
  283DMC      H 3052   1.404   3.274   0.468
  283DMC      H 3053   1.273   3.392   0.459
  283DMC      H 3054   1.471   3.702   0.011
  283DMC      H 3055   1.336   3.589  -0.013
  283DMC      H 3056   1.324   3.721   0.109
  284DMC      C 3057   0.075   1.259   1.169
  284DMC      O 3058   0.016   1.250   1.299
  284DMC      C 3059   0.102   1.209   1.395
  284DMC      O 3060   0.219   1.179   1.379
  284DMC      O 3061   0.035   1.205   1.514
  284DMC      C 3062   0.114   1.162   1.623
  284DMC      H 3063   0.111   1.161   1.136
  284DMC      H 3064  -0.002   1.294   1.099
  284DMC      H 3065   0.157   1.331   1.169
  284DMC      H 3066   0.051   1.161   1.713
  284DMC      H 3067   0.150   1.059   1.607
  284DMC      H 3068   0.197   1.230   1.640
  285DMC      C 3069   3.600   3.304   2.189
  285DMC      O 3070   3.552   3.378   2.076
  285DMC      C 3071   3.628   3.362   1.965
  285DMC      O 3072   3.729   3.294   1.956
  285DMC      O 3073   3.573   3.436   1.865
  285DMC      C 3074   3.644   3.429   1.743
  285DMC      H 3075   3.700   3.337   2.218
  285DMC      H 3076   3.532   3.323   2.273
  285DMC      H 3077   3.599   3.197   2.169
  285DMC      H 3078   3.592   3.492   1.669
  285DMC      H 3079   3.746   3.467   1.755
  285DMC      H 3080   3.645   3.326   1.705
  286DMC      C 3081   2.861   1.398   0.639
  286DMC      O 3082   2.948   1.511   0.624
  286DMC      C 3083   2.947   1.565   0.500
  286DMC      O 3084   2.881   1.526   0.405
  286DMC      O 3085   3.032   1.671   0.500
  286DMC      C 3086   3.041   1.737   0.374
  286DMC      H 3087   2.891   1.317   0.571
  286DMC      H 3088   2.868   1.362   0.742
  286DMC      H 3089   2.757   1.427   0.620
  286DMC      H 3090   3.113   1.820   0.384
  286DMC      H 3091   3.079   1.668   0.297
  286DMC      H 3092   2.944   1.778   0.345
  287DMC      C 3093   3.394   2.960   3.925
  287DMC      O 3094   3.425   3.007   3.793
  287DMC      C 3095   3.387   2.922   3.695
  287DMC      O 3096   3.332   2.814   3.711
  287DMC      O 3097   3.421   2.977   3.575
  287DMC      C 3098   3.387   2.896   3.463
  287DMC      H 3099   3.446   2.866   3.946
  287DMC      H 3100   3.428   3.035   3.996
  287DMC      H 3101   3.286   2.948   3.937
  287DMC      H 3102   3.419   2.949   3.372
  287DMC      H 3103   3.439   2.800   3.467
  287DMC      H 3104   3.279   2.881   3.458
  288DMC      C 3105   2.253   2.501   0.504
  288DMC      O 3106   2.308   2.466   0.376
  288DMC      C 3107   2.214   2.446   0.280
  288DMC      O 3108   2.093   2.454   0.295
  288DMC      O 3109   2.279   2.413   0.165
  288DMC      C 3110   2.191   2.389   0.056
  288DMC      H 3111   2.188   2.421   0.542
  288DMC      H 3112   2.335   2.515   0.574
  288DMC      H 3113   2.197   2.594   0.497
  288DMC      H 3114   2.253   2.364  -0.032
  288DMC      H 3115   2.125   2.304   0.077
  288DMC      H 3116   2.133   2.479   0.032
  289DMC      C 3117   3.667   1.599   0.514
  289DMC      O 3118   3.563   1.656   0.593
  289DMC      C 3119   3.477   1.565   0.646
  289DMC      O 3120   3.483   1.444   0.630
  289DMC      O 3121   3.384   1.632   0.719
  289DMC      C 3122   3.288   1.547   0.779
  289DMC      H 3123   3.625   1.545   0.428
  289DMC      H 3124   3.730   1.680   0.476
  289DMC      H 3125   3.729   1.532   0.574
  289DMC      H 3126   3.217   1.610   0.835
  289DMC      H 3127   3.231   1.492   0.703
  289DMC      H 3128   3.335   1.478   0.849
  290DMC      C 3129   0.561   2.331   2.665
  290DMC      O 3130   0.535   2.293   2.800
  290DMC      C 3131   0.645   2.290   2.879
  290DMC      O 3132   0.759   2.316   2.843
  290DMC      O 3133   0.607   2.253   3.004
  290DMC      C 3134   0.714   2.246   3.097
  290DMC      H 3135   0.629   2.260   2.617
  290DMC      H 3136   0.467   2.330   2.610
  290DMC      H 3137   0.603   2.432   2.661
  290DMC      H 3138   0.674   2.215   3.194
  290DMC      H 3139   0.788   2.171   3.065
  290DMC      H 3140   0.761   2.344   3.108
  291DMC      C 3141   1.145   1.371   0.136
  291DMC      O 3142   1.044   1.282   0.085
  291DMC      C 3143   1.087   1.155   0.069
  291DMC      O 3144   1.200   1.113   0.093
  291DMC      O 3145   0.984   1.081   0.022
  291DMC      C 3146   1.016   0.944   0.000
  291DMC      H 3147   1.229   1.377   0.066
  291DMC      H 3148   1.101   1.471   0.145
  291DMC      H 3149   1.179   1.339   0.234
  291DMC      H 3150   0.926   0.894  -0.039
  291DMC      H 3151   1.095   0.935  -0.075
  291DMC      H 3152   1.045   0.896   0.094
  292DMC      C 3153   1.790   3.430   0.378
  292DMC      O 3154   1.913   3.398   0.311
  292DMC      C 3155   1.900   3.384   0.177
  292DMC      O 3156   1.796   3.396   0.113
  292DMC      O 3157   2.022   3.355   0.125
  292DMC      C 3158   2.022   3.338  -0.016
  292DMC      H 3159   1.716   3.350   0.363
  292DMC      H 3160   1.811   3.439   0.485
  292DMC      H 3161   1.750   3.525   0.342
  292DMC      H 3162   2.124   3.314  -0.047
  292DMC      H 3163   1.957   3.254  -0.044
  292DMC      H 3164   1.991   3.429  -0.066
  293DMC      C 3165   2.192   0.240   1.474
  293DMC      O 3166   2.091   0.284   1.382
  293DMC      C 3167   2.136   0.372   1.290
  293DMC      O 3168   2.250   0.415   1.282
  293DMC      O 3169   2.032   0.406   1.209
  293DMC      C 3170   2.066   0.499   1.107
  293DMC      H 3171   2.231   0.324   1.531
  293DMC      H 3172   2.146   0.169   1.543
  293DMC      H 3173   2.273   0.189   1.421
  293DMC      H 3174   1.976   0.520   1.048
  293DMC      H 3175   2.100   0.594   1.152
  293DMC      H 3176   2.143   0.458   1.041
  294DMC      C 3177   2.008   1.303   1.233
  294DMC      O 3178   2.124   1.239   1.286
  294DMC      C 3179   2.175   1.143   1.205
  294DMC      O 3180   2.130   1.109   1.097
  294DMC      O 3181   2.284   1.090   1.267
  294DMC      C 3182   2.347   0.987   1.192
  294DMC      H 3183   1.927   1.231   1.218
  294DMC      H 3184   1.975   1.379   1.305
  294DMC      H 3185   2.032   1.354   1.139
  294DMC      H 3186   2.433   0.950   1.250
  294DMC      H 3187   2.278   0.902   1.177
  294DMC      H 3188   2.383   1.025   1.096
  295DMC      C 3189   3.117   3.243   1.374
  295DMC      O 3190   3.089   3.129   1.456
  295DMC      C 3191   3.194   3.090   1.532
  295DMC      O 3192   3.304   3.142   1.535
  295DMC      O 3193   3.155   2.982   1.605
  295DMC      C 3194   3.256   2.930   1.690
  295DMC      H 3195   3.199   3.221   1.304
  295DMC      H 3196   3.027   3.267   1.316
  295DMC      H 3197   3.142   3.329   1.435
  295DMC      H 3198   3.215   2.844   1.744
  295DMC      H 3199   3.342   2.896   1.632
  295DMC      H 3200   3.286   3.005   1.764
  296DMC      C 3201   1.202   2.810   3.810
  296DMC      O 3202   1.109   2.889   3.735
  296DMC      C 3203   1.029   2.817   3.654
  296DMC      O 3204   1.031   2.695   3.640
  296DMC      O 3205   0.945   2.902   3.589
  296DMC      C 3206   0.855   2.838   3.500
  296DMC      H 3207   1.270   2.756   3.743
  296DMC      H 3208   1.262   2.877   3.872
  296DMC      H 3209   1.150   2.740   3.875
  296DMC      H 3210   0.793   2.915   3.453
  296DMC      H 3211   0.911   2.786   3.421
  296DMC      H 3212   0.790   2.769   3.554
  297DMC      C 3213   3.480   0.345   3.262
  297DMC      O 3214   3.418   0.360   3.134
  297DMC      C 3215   3.498   0.327   3.030
  297DMC      O 3216   3.613   0.288   3.039
  297DMC      O 3217   3.428   0.345   2.915
  297DMC      C 3218   3.502   0.314   2.798
  297DMC      H 3219   3.567   0.411   3.271
  297DMC      H 3220   3.407   0.374   3.339
  297DMC      H 3221   3.508   0.241   3.279
  297DMC      H 3222   3.437   0.333   2.711
  297DMC      H 3223   3.590   0.379   2.789
  297DMC      H 3224   3.531   0.209   2.798
  298DMC      C 3225   2.495   0.710   2.338
  298DMC      O 3226   2.627   0.748   2.377
  298DMC      C 3227   2.704   0.644   2.416
  298DMC      O 3228   2.670   0.527   2.420
  298DMC      O 3229   2.827   0.692   2.450
  298DMC      C 3230   2.918   0.592   2.493
  298DMC      H 3231   2.441   0.664   2.422
  298DMC      H 3232   2.441   0.801   2.308
  298DMC      H 3233   2.497   0.643   2.252
  298DMC      H 3234   3.013   0.641   2.519
  298DMC      H 3235   2.880   0.542   2.583
  298DMC      H 3236   2.936   0.520   2.413
  299DMC      C 3237   0.560   2.921   0.569
  299DMC      O 3238   0.509   3.041   0.628
  299DMC      C 3239   0.520   3.044   0.763
  299DMC      O 3240   0.566   2.955   0.833
  299DMC      O 3241   0.469   3.162   0.807
  299DMC      C 3242   0.474   3.178   0.947
  299DMC      H 3243   0.504   2.834   0.604
  299DMC      H 3244   0.547   2.928   0.460
  299DMC      H 3245   0.666   2.909   0.590
  299DMC      H 3246   0.430   3.276   0.973
  299DMC      H 3247   0.413   3.100   0.997
  299DMC      H 3248   0.577   3.175   0.983
  300DMC      C 3249   0.213   1.628   0.722
  300DMC      O 3250   0.287   1.742   0.771
  300DMC      C 3251   0.215   1.822   0.853
  300DMC      O 3252   0.099   1.805   0.886
  300DMC      O 3253   0.295   1.925   0.892
  300DMC      C 3254   0.232   2.017   0.979
  300DMC      H 3255   0.127   1.661   0.664
  300DMC      H 3256   0.279   1.570   0.657
  300DMC      H 3257   0.182   1.565   0.805
  300DMC      H 3258   0.304   2.096   1.004
  300DMC      H 3259   0.146   2.064   0.929
  300DMC      H 3260   0.201   1.968   1.071
  301DMC      C 3261   1.204   2.455   1.104
  301DMC      O 3262   1.185   2.571   1.023
  301DMC      C 3263   1.234   2.559   0.898
  301DMC      O 3264   1.291   2.461   0.852
  301DMC      O 3265   1.209   2.675   0.831
  301DMC      C 3266   1.257   2.675   0.697
  301DMC      H 3267   1.311   2.434   1.117
  301DMC      H 3268   1.161   2.474   1.203
  301DMC      H 3269   1.153   2.369   1.061
  301DMC      H 3270   1.233   2.773   0.653
  301DMC      H 3271   1.366   2.663   0.695
  301DMC      H 3272   1.208   2.597   0.639
  302DMC      C 3273   0.610   3.049   1.812
  302DMC      O 3274   0.599   2.992   1.943
  302DMC      C 3275   0.503   2.897   1.954
  302DMC      O 3276   0.429   2.860   1.864
  302DMC      O 3277   0.502   2.851   2.082
  302DMC      C 3278   0.405   2.750   2.106
  302DMC      H 3279   0.517   3.098   1.784
  302DMC      H 3280   0.690   3.124   1.814
  302DMC      H 3281   0.636   2.972   1.739
  302DMC      H 3282   0.412   2.721   2.211
  302DMC      H 3283   0.304   2.790   2.089
  302DMC      H 3284   0.424   2.663   2.044
  303DMC      C 3285   0.708   2.013   3.260
  303DMC      O 3286   0.746   1.943   3.379
  303DMC      C 3287   0.759   2.023   3.487
  303DMC      O 3288   0.741   2.144   3.490
  303DMC      O 3289   0.795   1.945   3.593
  303DMC      C 3290   0.812   2.017   3.714
  303DMC      H 3291   0.783   2.088   3.233
  303DMC      H 3292   0.700   1.941   3.178
  303DMC      H 3293   0.610   2.061   3.273
  303DMC      H 3294   0.842   1.946   3.792
  303DMC      H 3295   0.893   2.091   3.703
  303DMC      H 3296   0.719   2.065   3.744
  304DMC      C 3297   2.881   2.324   0.819
  304DMC      O 3298   2.803   2.357   0.703
  304DMC      C 3299   2.868   2.434   0.614
  304DMC      O 3300   2.982   2.476   0.625
  304DMC      O 3301   2.784   2.458   0.509
  304DMC      C 3302   2.841   2.539   0.407
  304DMC      H 3303   2.909   2.415   0.874
  304DMC      H 3304   2.820   2.261   0.885
  304DMC      H 3305   2.970   2.268   0.790
  304DMC      H 3306   2.765   2.553   0.329
  304DMC      H 3307   2.867   2.638   0.447
  304DMC      H 3308   2.928   2.491   0.364
  305DMC      C 3309   2.514   2.209   3.069
  305DMC      O 3310   2.374   2.193   3.043
  305DMC      C 3311   2.306   2.310   3.035
  305DMC      O 3312   2.355   2.422   3.049
  305DMC      O 3313   2.176   2.282   3.011
  305DMC      C 3314   2.093   2.398   3.000
  305DMC      H 3315   2.530   2.258   3.165
  305DMC      H 3316   2.559   2.109   3.073
  305DMC      H 3317   2.562   2.265   2.988
  305DMC      H 3318   1.990   2.365   2.981
  305DMC      H 3319   2.094   2.454   3.095
  305DMC      H 3320   2.126   2.461   2.918
  306DMC      C 3321   3.105   3.581   1.856
  306DMC      O 3322   3.181   3.523   1.963
  306DMC      C 3323   3.258   3.613   2.030
  306DMC      O 3324   3.266   3.732   2.006
  306DMC      O 3325   3.325   3.546   2.128
  306DMC      C 3326   3.410   3.629   2.205
  306DMC      H 3327   3.171   3.625   1.781
  306DMC      H 3328   3.046   3.502   1.809
  306DMC      H 3329   3.036   3.656   1.895
  306DMC      H 3330   3.459   3.567   2.281
  306DMC      H 3331   3.488   3.674   2.142
  306DMC      H 3332   3.352   3.706   2.257
  307DMC      C 3333   2.582   0.984   3.783
  307DMC      O 3334   2.652   1.075   3.869
  307DMC      C 3335   2.722   1.170   3.803
  307DMC      O 3336   2.729   1.182   3.681
  307DMC      O 3337   2.783   1.249   3.894
  307DMC      C 3338   2.860   1.354   3.837
  307DMC      H 3339   2.652   0.929   3.719
  307DMC      H 3340   2.528   0.912   3.846
  307DMC      H 3341   2.508   1.037   3.722
  307DMC      H 3342   2.906   1.411   3.919
  307DMC      H 3343   2.941   1.312   3.776
  307DMC      H 3344   2.797   1.420   3.778
  308DMC      C 3345   0.519   1.560   2.401
  308DMC      O 3346   0.592   1.495   2.505
  308DMC      C 3347   0.666   1.579   2.581
  308DMC      O 3348   0.674   1.700   2.566
  308DMC      O 3349   0.730   1.506   2.676
  308DMC      C 3350   0.811   1.584   2.763
  308DMC      H 3351   0.587   1.610   2.331
  308DMC      H 3352   0.463   1.484   2.346
  308DMC      H 3353   0.448   1.632   2.442
  308DMC      H 3354   0.858   1.516   2.835
  308DMC      H 3355   0.891   1.634   2.706
  308DMC      H 3356   0.751   1.656   2.818
  309DMC      C 3357   1.662   1.859   1.554
  309DMC      O 3358   1.745   1.743   1.535
  309DMC      C 3359   1.874   1.761   1.572
  309DMC      O 3360   1.921   1.865   1.617
  309DMC      O 3361   1.941   1.645   1.551
  309DMC      C 3362   2.078   1.651   1.585
  309DMC      H 3363   1.698   1.942   1.492
  309DMC      H 3364   1.561   1.834   1.522
  309DMC      H 3365   1.659   1.887   1.659
  309DMC      H 3366   2.124   1.554   1.563
  309DMC      H 3367   2.130   1.727   1.524
  309DMC      H 3368   2.091   1.673   1.691
  310DMC      C 3369   2.600   2.449   1.183
  310DMC      O 3370   2.654   2.580   1.160
  310DMC      C 3371   2.622   2.670   1.255
  310DMC      O 3372   2.553   2.648   1.354
  310DMC      O 3373   2.679   2.789   1.222
  310DMC      C 3374   2.652   2.893   1.315
  310DMC      H 3375   2.490   2.452   1.185
  310DMC      H 3376   2.631   2.384   1.101
  310DMC      H 3377   2.639   2.408   1.277
  310DMC      H 3378   2.701   2.984   1.279
  310DMC      H 3379   2.544   2.913   1.321
  310DMC      H 3380   2.693   2.868   1.413
  311DMC      C 3381   3.535   1.950   2.815
  311DMC      O 3382   3.609   1.879   2.715
  311DMC      C 3383   3.538   1.782   2.652
  311DMC      O 3384   3.422   1.753   2.674
  311DMC      O 3385   3.619   1.723   2.560
  311DMC      C 3386   3.556   1.619   2.487
  311DMC      H 3387   3.502   1.882   2.894
  311DMC      H 3388   3.600   2.025   2.860
  311DMC      H 3389   3.449   2.001   2.770
  311DMC      H 3390   3.630   1.578   2.417
  311DMC      H 3391   3.525   1.538   2.555
  311DMC      H 3392   3.472   1.658   2.430
  312DMC      C 3393   3.386   1.451   1.436
  312DMC      O 3394   3.429   1.445   1.572
  312DMC      C 3395   3.346   1.375   1.653
  312DMC      O 3396   3.242   1.321   1.619
  312DMC      O 3397   3.398   1.377   1.779
  312DMC      C 3398   3.319   1.307   1.874
  312DMC      H 3399   3.289   1.501   1.428
  312DMC      H 3400   3.459   1.508   1.379
  312DMC      H 3401   3.380   1.350   1.393
  312DMC      H 3402   3.369   1.315   1.972
  312DMC      H 3403   3.220   1.353   1.883
  312DMC      H 3404   3.311   1.202   1.847
  313DMC      C 3405   2.070   0.633   2.576
  313DMC      O 3406   1.929   0.617   2.553
  313DMC      C 3407   1.897   0.509   2.479
  313DMC      O 3408   1.976   0.428   2.433
  313DMC      O 3409   1.762   0.505   2.465
  313DMC      C 3410   1.715   0.395   2.389
  313DMC      H 3411   2.123   0.645   2.481
  313DMC      H 3412   2.086   0.722   2.636
  313DMC      H 3413   2.110   0.547   2.631
  313DMC      H 3414   1.606   0.402   2.383
  313DMC      H 3415   1.755   0.400   2.287
  313DMC      H 3416   1.742   0.301   2.437
  314DMC      C 3417   1.813   1.035   1.297
  314DMC      O 3418   1.748   1.010   1.423
  314DMC      C 3419   1.834   0.997   1.527
  314DMC      O 3420   1.956   1.004   1.520
  314DMC      O 3421   1.762   0.975   1.639
  314DMC      C 3422   1.841   0.959   1.756
  314DMC      H 3423   1.878   0.951   1.270
  314DMC      H 3424   1.735   1.044   1.220
  314DMC      H 3425   1.869   1.128   1.300
  314DMC      H 3426   1.773   0.941   1.841
  314DMC      H 3427   1.907   0.872   1.746
  314DMC      H 3428   1.898   1.049   1.776
  315DMC      C 3429   1.934   0.065   1.602
  315DMC      O 3430   1.894   0.147   1.713
  315DMC      C 3431   1.905   0.280   1.690
  315DMC      O 3432   1.945   0.331   1.587
  315DMC      O 3433   1.864   0.345   1.802
  315DMC      C 3434   1.872   0.487   1.791
  315DMC      H 3435   2.039   0.082   1.577
  315DMC      H 3436   1.921  -0.040   1.630
  315DMC      H 3437   1.871   0.086   1.515
  315DMC      H 3438   1.838   0.530   1.886
  315DMC      H 3439   1.975   0.519   1.774
  315DMC      H 3440   1.806   0.522   1.711
  316DMC      C 3441   1.118   3.344   1.497
  316DMC      O 3442   1.071   3.229   1.569
  316DMC      C 3443   1.170   3.155   1.625
  316DMC      O 3444   1.289   3.178   1.619
  316DMC      O 3445   1.112   3.050   1.690
  316DMC      C 3446   1.206   2.964   1.753
  316DMC      H 3447   1.183   3.313   1.415
  316DMC      H 3448   1.032   3.396   1.456
  316DMC      H 3449   1.171   3.412   1.564
  316DMC      H 3450   1.150   2.883   1.802
  316DMC      H 3451   1.273   2.919   1.679
  316DMC      H 3452   1.262   3.018   1.830
  317DMC      C 3453   3.011   3.247  -0.125
  317DMC      O 3454   2.911   3.279  -0.027
  317DMC      C 3455   2.924   3.209   0.088
  317DMC      O 3456   3.010   3.126   0.112
  317DMC      O 3457   2.825   3.248   0.172
  317DMC      C 3458   2.826   3.182   0.298
  317DMC      H 3459   3.005   3.142  -0.154
  317DMC      H 3460   2.992   3.309  -0.214
  317DMC      H 3461   3.110   3.271  -0.088
  317DMC      H 3462   2.742   3.220   0.358
  317DMC      H 3463   2.813   3.074   0.284
  317DMC      H 3464   2.919   3.203   0.351
  318DMC      C 3465   1.738   3.061   3.979
  318DMC      O 3466   1.621   3.064   3.896
  318DMC      C 3467   1.644   3.025   3.769
  318DMC      O 3468   1.752   2.991   3.722
  318DMC      O 3469   1.527   3.031   3.701
  318DMC      C 3470   1.537   2.993   3.564
  318DMC      H 3471   1.814   3.130   3.941
  318DMC      H 3472   1.709   3.094   4.080
  318DMC      H 3473   1.778   2.960   3.986
  318DMC      H 3474   1.438   3.002   3.518
  318DMC      H 3475   1.605   3.061   3.511
  318DMC      H 3476   1.570   2.890   3.556
  319DMC      C 3477   2.629   3.741   1.274
  319DMC      O 3478   2.679   3.784   1.402
  319DMC      C 3479   2.594   3.758   1.504
  319DMC      O 3480   2.484   3.705   1.495
  319DMC      O 3481   2.651   3.803   1.619
  319DMC      C 3482   2.572   3.782   1.735
  319DMC      H 3483   2.536   3.793   1.249
  319DMC      H 3484   2.704   3.765   1.198
  319DMC      H 3485   2.614   3.633   1.273
  319DMC      H 3486   2.627   3.822   1.821
  319DMC      H 3487   2.477   3.837   1.726
  319DMC      H 3488   2.555   3.676   1.751
  320DMC      C 3489   1.513   0.576   0.387
  320DMC      O 3490   1.461   0.591   0.255
  320DMC      C 3491   1.422   0.474   0.198
  320DMC      O 3492   1.430   0.364   0.250
  320DMC      O 3493   1.374   0.501   0.074
  320DMC      C 3494   1.331   0.386   0.003
  320DMC      H 3495   1.602   0.513   0.387
  320DMC      H 3496   1.541   0.676   0.424
  320DMC      H 3497   1.437   0.535   0.454
  320DMC      H 3498   1.295   0.418  -0.096
  320DMC      H 3499   1.414   0.316  -0.012
  320DMC      H 3500   1.249   0.337   0.056
  321DMC      C 3501   0.507   3.702   2.711
  321DMC      O 3502   0.451   3.610   2.617
  321DMC      C 3503   0.536   3.510   2.582
  321DMC      O 3504   0.650   3.495   2.622
  321DMC      O 3505   0.471   3.430   2.493
  321DMC      C 3506   0.550   3.321   2.447
  321DMC      H 3507   0.595   3.752   2.669
  321DMC      H 3508   0.432   3.778   2.734
  321DMC      H 3509   0.533   3.651   2.804
  321DMC      H 3510   0.490   3.263   2.376
  321DMC      H 3511   0.639   3.357   2.395
  321DMC      H 3512   0.577   3.256   2.531
  322DMC      C 3513   3.810   0.467   0.665
  322DMC      O 3514   3.870   0.449   0.794
  322DMC      C 3515   3.795   0.496   0.896
  322DMC      O 3516   3.687   0.551   0.886
  322DMC      O 3517   3.862   0.472   1.012
  322DMC      C 3518   3.794   0.518   1.128
  322DMC      H 3519   3.796   0.574   0.644
  322DMC      H 3520   3.878   0.426   0.590
  322DMC      H 3521   3.715   0.414   0.659
  322DMC      H 3522   3.856   0.495   1.216
  322DMC      H 3523   3.780   0.627   1.124
  322DMC      H 3524   3.698   0.466   1.139
  323DMC      C 3525   0.666   0.943   3.590
  323DMC      O 3526   0.601   0.825   3.540
  323DMC      C 3527   0.573   0.831   3.407
  323DMC      O 3528   0.597   0.925   3.333
  323DMC      O 3529   0.513   0.715   3.372
  323DMC      C 3530   0.477   0.709   3.234
  323DMC      H 3531   0.602   1.031   3.578
  323DMC      H 3532   0.685   0.928   3.697
  323DMC      H 3533   0.762   0.958   3.540
  323DMC      H 3534   0.429   0.612   3.216
  323DMC      H 3535   0.405   0.788   3.209
  323DMC      H 3536   0.566   0.716   3.171
  324DMC      C 3537   1.793   0.167   3.723
  324DMC      O 3538   1.841   0.119   3.597
  324DMC      C 3539   1.941   0.195   3.545
  324DMC      O 3540   1.989   0.295   3.595
  324DMC      O 3541   1.978   0.139   3.426
  324DMC      C 3542   2.083   0.209   3.360
  324DMC      H 3543   1.752   0.268   3.713
  324DMC      H 3544   1.713   0.100   3.757
  324DMC      H 3545   1.873   0.166   3.798
  324DMC      H 3546   2.105   0.157   3.266
  324DMC      H 3547   2.051   0.312   3.336
  324DMC      H 3548   2.173   0.210   3.422
  325DMC      C 3549   0.603   3.568   3.143
  325DMC      O 3550   0.588   3.504   3.270
  325DMC      C 3551   0.704   3.490   3.338
  325DMC      O 3552   0.814   3.525   3.299
  325DMC      O 3553   0.677   3.429   3.456
  325DMC      C 3554   0.791   3.407   3.537
  325DMC      H 3555   0.668   3.509   3.077
  325DMC      H 3556   0.504   3.575   3.096
  325DMC      H 3557   0.642   3.669   3.155
  325DMC      H 3558   0.759   3.357   3.629
  325DMC      H 3559   0.863   3.341   3.486
  325DMC      H 3560   0.838   3.502   3.564
  326DMC      C 3561   3.605   3.037   2.441
  326DMC      O 3562   3.563   3.010   2.575
  326DMC      C 3563   3.644   3.062   2.669
  326DMC      O 3564   3.746   3.127   2.649
  326DMC      O 3565   3.594   3.030   2.792
  326DMC      C 3566   3.671   3.079   2.900
  326DMC      H 3567   3.703   2.994   2.421
  326DMC      H 3568   3.533   2.992   2.372
  326DMC      H 3569   3.606   3.145   2.422
  326DMC      H 3570   3.623   3.047   2.994
  326DMC      H 3571   3.772   3.036   2.898
  326DMC      H 3572   3.675   3.188   2.898
  327DMC      C 3573   0.771   2.424   1.224
  327DMC      O 3574   0.718   2.419   1.357
  327DMC      C 3575   0.810   2.387   1.451
  327DMC      O 3576   0.928   2.363   1.431
  327DMC      O 3577   0.748   2.385   1.572
  327DMC      C 3578   0.834   2.352   1.680
  327DMC      H 3579   0.811   2.326   1.194
  327DMC      H 3580   0.690   2.451   1.156
  327DMC      H 3581   0.849   2.500   1.217
  327DMC      H 3582   0.774   2.353   1.773
  327DMC      H 3583   0.875   2.251   1.667
  327DMC      H 3584   0.913   2.426   1.690
  328DMC      C 3585   1.517   1.613   3.599
  328DMC      O 3586   1.577   1.514   3.684
  328DMC      C 3587   1.674   1.563   3.764
  328DMC      O 3588   1.712   1.679   3.769
  328DMC      O 3589   1.723   1.460   3.839
  328DMC      C 3590   1.826   1.498   3.928
  328DMC      H 3591   1.592   1.657   3.532
  328DMC      H 3592   1.440   1.565   3.539
  328DMC      H 3593   1.469   1.691   3.659
  328DMC      H 3594   1.859   1.408   3.983
  328DMC      H 3595   1.913   1.537   3.873
  328DMC      H 3596   1.790   1.571   4.001
  329DMC      C 3597   1.404   0.296   3.162
  329DMC      O 3598   1.348   0.336   3.037
  329DMC      C 3599   1.367   0.246   2.937
  329DMC      O 3600   1.427   0.140   2.947
  329DMC      O 3601   1.310   0.295   2.824
  329DMC      C 3602   1.324   0.210   2.711
  329DMC      H 3603   1.512   0.284   3.155
  329DMC      H 3604   1.382   0.374   3.236
  329DMC      H 3605   1.358   0.203   3.197
  329DMC      H 3606   1.275   0.258   2.626
  329DMC      H 3607   1.430   0.196   2.687
  329DMC      H 3608   1.275   0.114   2.729
  330DMC      C 3609   0.140   2.959   2.183
  330DMC      O 3610   0.115   3.014   2.313
  330DMC      C 3611   0.228   3.035   2.385
  330DMC      O 3612   0.342   3.010   2.349
  330DMC      O 3613   0.191   3.088   2.505
  330DMC      C 3614   0.301   3.114   2.591
  330DMC      H 3615   0.188   2.861   2.191
  330DMC      H 3616   0.044   2.946   2.132
  330DMC      H 3617   0.201   3.026   2.123
  330DMC      H 3618   0.261   3.156   2.685
  330DMC      H 3619   0.355   3.022   2.615
  330DMC      H 3620   0.368   3.188   2.546
  331DMC      C 3621   1.053   2.970   2.854
  331DMC      O 3622   1.087   3.067   2.954
  331DMC      C 3623   1.220   3.090   2.966
  331DMC      O 3624   1.308   3.036   2.900
  331DMC      O 3625   1.238   3.183   3.063
  331DMC      C 3626   1.375   3.216   3.085
  331DMC      H 3627   1.098   2.873   2.877
  331DMC      H 3628   0.945   2.959   2.852
  331DMC      H 3629   1.086   3.005   2.755
  331DMC      H 3630   1.379   3.291   3.166
  331DMC      H 3631   1.431   3.128   3.118
  331DMC      H 3632   1.419   3.259   2.995
  332DMC      C 3633   0.519   1.109   1.564
  332DMC      O 3634   0.423   1.203   1.616
  332DMC      C 3635   0.436   1.225   1.749
  332DMC      O 3636   0.518   1.173   1.823
  332DMC      O 3637   0.341   1.315   1.786
  332DMC      C 3638   0.343   1.347   1.924
  332DMC      H 3639   0.507   1.011   1.612
  332DMC      H 3640   0.501   1.098   1.457
  332DMC      H 3641   0.621   1.146   1.578
  332DMC      H 3642   0.262   1.419   1.944
  332DMC      H 3643   0.324   1.258   1.985
  332DMC      H 3644   0.438   1.393   1.951
  333DMC      C 3645   2.538   0.601   0.079
  333DMC      O 3646   2.665   0.641   0.130
  333DMC      C 3647   2.670   0.646   0.266
  333DMC      O 3648   2.577   0.621   0.342
  333DMC      O 3649   2.795   0.684   0.302
  333DMC      C 3650   2.813   0.694   0.443
  333DMC      H 3651   2.460   0.673   0.108
  333DMC      H 3652   2.544   0.599  -0.031
  333DMC      H 3653   2.512   0.501   0.113
  333DMC      H 3654   2.917   0.725   0.462
  333DMC      H 3655   2.746   0.770   0.485
  333DMC      H 3656   2.797   0.597   0.490
  334DMC      C 3657   2.457   1.292   0.956
  334DMC      O 3658   2.416   1.384   1.058
  334DMC      C 3659   2.481   1.503   1.053
  334DMC      O 3660   2.568   1.534   0.973
  334DMC      O 3661   2.433   1.581   1.154
  334DMC      C 3662   2.494   1.709   1.160
  334DMC      H 3663   2.563   1.267   0.967
  334DMC      H 3664   2.398   1.200   0.968
  334DMC      H 3665   2.437   1.333   0.857
  334DMC      H 3666   2.450   1.764   1.244
  334DMC      H 3667   2.602   1.700   1.179
  334DMC      H 3668   2.476   1.765   1.069
  335DMC      C 3669   1.657   2.100   0.499
  335DMC      O 3670   1.675   2.013   0.611
  335DMC      C 3671   1.735   2.072   0.717
  335DMC      O 3672   1.773   2.189   0.722
  335DMC      O 3673   1.747   1.980   0.816
  335DMC      C 3674   1.809   2.030   0.934
  335DMC      H 3675   1.753   2.137   0.462
  335DMC      H 3676   1.608   2.044   0.419
  335DMC      H 3677   1.592   2.184   0.526
  335DMC      H 3678   1.814   1.948   1.007
  335DMC      H 3679   1.911   2.063   0.912
  335DMC      H 3680   1.750   2.111   0.976
  336DMC      C 3681   2.122   0.796   3.208
  336DMC      O 3682   2.036   0.710   3.133
  336DMC      C 3683   1.972   0.773   3.031
  336DMC      O 3684   1.982   0.892   3.003
  336DMC      O 3685   1.894   0.682   2.967
  336DMC      C 3686   1.820   0.736   2.858
  336DMC      H 3687   2.065   0.877   3.255
  336DMC      H 3688   2.169   0.736   3.287
  336DMC      H 3689   2.201   0.837   3.145
  336DMC      H 3690   1.761   0.655   2.814
  336DMC      H 3691   1.751   0.814   2.893
  336DMC      H 3692   1.888   0.775   2.782
  337DMC      C 3693   0.119   3.464   3.604
  337DMC      O 3694   0.219   3.366   3.635
  337DMC      C 3695   0.183   3.282   3.735
  337DMC      O 3696   0.078   3.284   3.797
  337DMC      O 3697   0.285   3.194   3.754
  337DMC      C 3698   0.261   3.100   3.858
  337DMC      H 3699   0.099   3.528   3.691
  337DMC      H 3700   0.156   3.527   3.523
  337DMC      H 3701   0.027   3.416   3.571
  337DMC      H 3702   0.349   3.035   3.866
  337DMC      H 3703   0.248   3.151   3.954
  337DMC      H 3704   0.174   3.038   3.834
  338DMC      C 3705   0.140   3.074   0.447
  338DMC      O 3706   0.100   3.211   0.448
  338DMC      C 3707   0.170   3.289   0.363
  338DMC      O 3708   0.261   3.252   0.290
  338DMC      O 3709   0.123   3.417   0.373
  338DMC      C 3710   0.190   3.509   0.288
  338DMC      H 3711   0.244   3.064   0.478
  338DMC      H 3712   0.077   3.019   0.518
  338DMC      H 3713   0.125   3.030   0.348
  338DMC      H 3714   0.145   3.608   0.304
  338DMC      H 3715   0.296   3.515   0.315
  338DMC      H 3716   0.177   3.482   0.184
  339DMC      C 3717   0.614   0.508   0.289
  339DMC      O 3718   0.630   0.521   0.431
  339DMC      C 3719   0.755   0.559   0.469
  339DMC      O 3720   0.849   0.580   0.394
  339DMC      O 3721   0.757   0.568   0.605
  339DMC      C 3722   0.883   0.606   0.658
  339DMC      H 3723   0.682   0.431   0.250
  339DMC      H 3724   0.511   0.478   0.269
  339DMC      H 3725   0.633   0.604   0.240
  339DMC      H 3726   0.874   0.610   0.767
  339DMC      H 3727   0.960   0.532   0.632
  339DMC      H 3728   0.911   0.705   0.622
  340DMC      C 3729   1.429   2.667   2.508
  340DMC      O 3730   1.368   2.696   2.382
  340DMC      C 3731   1.457   2.724   2.283
  340DMC      O 3732   1.579   2.727   2.295
  340DMC      O 3733   1.387   2.749   2.169
  340DMC      C 3734   1.469   2.780   2.058
  340DMC      H 3735   1.486   2.753   2.544
  340DMC      H 3736   1.350   2.645   2.580
  340DMC      H 3737   1.494   2.579   2.500
  340DMC      H 3738   1.404   2.800   1.972
  340DMC      H 3739   1.528   2.872   2.077
  340DMC      H 3740   1.535   2.697   2.034
   3.82000   3.82000   3.82000
