; ITP file created by ByteFF-ML, 2026-09-14 11:04:03.015008

[ moleculetype ]
;name             nrexcl
 DMSO                  3

[ atoms ]
;       nr            type      resi   res      atom      cgnr      charge          mass ; qtot
         1            c0bf         1   UNL        c0         1    -0.30987       12.0110 ; qtot   -0.310
         2            s1bf         1   UNL        s1         2     0.24344       32.0670 ; qtot   -0.066
         3            c2bf         1   UNL        c2         3    -0.30987       12.0110 ; qtot   -0.376
         4            o3bf         1   UNL        o3         4    -0.44857       15.9990 ; qtot   -0.825
         5            h4bf         1   UNL        h4         5     0.13748        1.0080 ; qtot   -0.687
         6            h5bf         1   UNL        h5         6     0.13748        1.0080 ; qtot   -0.550
         7            h6bf         1   UNL        h6         7     0.13748        1.0080 ; qtot   -0.412
         8            h7bf         1   UNL        h7         8     0.13748        1.0080 ; qtot   -0.275
         9            h8bf         1   UNL        h8         9     0.13748        1.0080 ; qtot   -0.137
        10            h9bf         1   UNL        h9        10     0.13747        1.0080 ; qtot    0.000

[ bonds ]
;       ai        aj funct               r               k
         1         2     1        0.184959   112967.834009
         1         5     1        0.109083   315066.487402
         1         6     1        0.109083   315066.487402
         1         7     1        0.109083   315066.487402
         2         3     1        0.184959   112967.834009
         2         4     1        0.150490   377929.274268
         3         8     1        0.109083   315066.487402
         3         9     1        0.109083   315066.487402
         3        10     1        0.109083   315066.487402

[ angles ]
;       ai        aj        ak funct           theta             cth
         1         2         3     1       98.753380      989.729235
         1         2         4     1      104.904388      959.392298
         2         1         5     1      108.574150      465.780595
         2         1         6     1      108.574150      465.780595
         2         1         7     1      108.574150      465.780595
         2         3         8     1      108.574150      465.780595
         2         3         9     1      108.574150      465.780595
         2         3        10     1      108.574150      465.780595
         3         2         4     1      104.904388      959.392298
         5         1         6     1      110.168663      337.543383
         5         1         7     1      110.168663      337.543383
         6         1         7     1      110.168663      337.543383
         8         3         9     1      110.168671      337.543606
         8         3        10     1      110.168671      337.543606
         9         3        10     1      110.168671      337.543606

[ dihedrals ] ; propers for gromacs 4.5 or higher, use funct 9
;       ai        aj        ak        al funct           phase               k        pn
         1         2         3         8     9        0.000000       -0.416277         1
         1         2         3         8     9      180.000000        2.509529         2
         1         2         3         8     9        0.000000        0.476055         3
         1         2         3         8     9      180.000000        0.304738         4
         1         2         3         9     9        0.000000       -0.416277         1
         1         2         3         9     9      180.000000        2.509529         2
         1         2         3         9     9        0.000000        0.476055         3
         1         2         3         9     9      180.000000        0.304738         4
         1         2         3        10     9        0.000000       -0.416277         1
         1         2         3        10     9      180.000000        2.509529         2
         1         2         3        10     9        0.000000        0.476055         3
         1         2         3        10     9      180.000000        0.304738         4
         3         2         1         5     9        0.000000       -0.416277         1
         3         2         1         5     9      180.000000        2.509529         2
         3         2         1         5     9        0.000000        0.476055         3
         3         2         1         5     9      180.000000        0.304738         4
         3         2         1         6     9        0.000000       -0.416277         1
         3         2         1         6     9      180.000000        2.509529         2
         3         2         1         6     9        0.000000        0.476055         3
         3         2         1         6     9      180.000000        0.304738         4
         3         2         1         7     9        0.000000       -0.416277         1
         3         2         1         7     9      180.000000        2.509529         2
         3         2         1         7     9        0.000000        0.476055         3
         3         2         1         7     9      180.000000        0.304738         4
         4         2         1         5     9        0.000000       -3.203142         1
         4         2         1         5     9      180.000000        2.817214         2
         4         2         1         5     9        0.000000        0.930947         3
         4         2         1         5     9      180.000000        0.297538         4
         4         2         1         6     9        0.000000       -3.203142         1
         4         2         1         6     9      180.000000        2.817214         2
         4         2         1         6     9        0.000000        0.930947         3
         4         2         1         6     9      180.000000        0.297538         4
         4         2         1         7     9        0.000000       -3.203142         1
         4         2         1         7     9      180.000000        2.817214         2
         4         2         1         7     9        0.000000        0.930947         3
         4         2         1         7     9      180.000000        0.297538         4
         4         2         3         8     9        0.000000       -3.203142         1
         4         2         3         8     9      180.000000        2.817214         2
         4         2         3         8     9        0.000000        0.930947         3
         4         2         3         8     9      180.000000        0.297538         4
         4         2         3         9     9        0.000000       -3.203142         1
         4         2         3         9     9      180.000000        2.817214         2
         4         2         3         9     9        0.000000        0.930947         3
         4         2         3         9     9      180.000000        0.297538         4
         4         2         3        10     9        0.000000       -3.203142         1
         4         2         3        10     9      180.000000        2.817214         2
         4         2         3        10     9        0.000000        0.930947         3
         4         2         3        10     9      180.000000        0.297538         4

[ pairs ]
;       ai        aj funct
         1         8     1
         1         9     1
         1        10     1
         3         5     1
         3         6     1
         3         7     1
         4         5     1
         4         6     1
         4         7     1
         4         8     1
         4         9     1
         4        10     1
