A Gromacs structure file written by ASE
 3740
    1EC       O    1   2.179   1.907   1.915
    1EC       C    2   2.057   1.908   1.913
    1EC       O    3   1.978   1.798   1.928
    1EC       C    4   1.847   1.837   1.895
    1EC       C    5   1.848   1.984   1.923
    1EC       O    6   1.982   2.021   1.894
    1EC       H    7   1.830   1.815   1.789
    1EC       H    8   1.773   1.784   1.955
    1EC       H    9   1.827   2.006   2.028
    1EC       H   10   1.778   2.040   1.860
    2EC       O   11   0.364   2.264   3.931
    2EC       C   12   0.358   2.258   3.809
    2EC       O   13   0.286   2.342   3.730
    2EC       C   14   0.286   2.286   3.601
    2EC       C   15   0.412   2.206   3.599
    2EC       O   16   0.424   2.164   3.735
    2EC       H   17   0.196   2.224   3.590
    2EC       H   18   0.286   2.364   3.524
    2EC       H   19   0.499   2.266   3.573
    2EC       H   20   0.406   2.119   3.533
    3EC       O   21   3.571   2.778   1.168
    3EC       C   22   3.536   2.854   1.079
    3EC       O   23   3.614   2.892   0.974
    3EC       C   24   3.548   2.998   0.910
    3EC       C   25   3.405   2.973   0.945
    3EC       O   26   3.413   2.914   1.074
    3EC       H   27   3.585   3.092   0.950
    3EC       H   28   3.565   2.996   0.802
    3EC       H   29   3.357   2.903   0.877
    3EC       H   30   3.345   3.066   0.949
    4EC       O   31   2.766   3.455   3.342
    4EC       C   32   2.676   3.479   3.420
    4EC       O   33   2.606   3.386   3.490
    4EC       C   34   2.496   3.452   3.549
    4EC       C   35   2.545   3.593   3.560
    4EC       O   36   2.631   3.606   3.448
    4EC       H   37   2.410   3.443   3.482
    4EC       H   38   2.471   3.409   3.646
    4EC       H   39   2.603   3.609   3.652
    4EC       H   40   2.464   3.667   3.555
    5EC       O   41   0.670   2.155   2.680
    5EC       C   42   0.677   2.234   2.773
    5EC       O   43   0.615   2.219   2.893
    5EC       C   44   0.627   2.341   2.961
    5EC       C   45   0.750   2.400   2.901
    5EC       O   46   0.748   2.351   2.768
    5EC       H   47   0.538   2.401   2.940
    5EC       H   48   0.636   2.326   3.069
    5EC       H   49   0.841   2.365   2.950
    5EC       H   50   0.750   2.510   2.901
    6EC       O   51   1.038   1.547   2.689
    6EC       C   52   0.973   1.573   2.589
    6EC       O   53   0.878   1.669   2.580
    6EC       C   54   0.811   1.650   2.457
    6EC       C   55   0.915   1.581   2.374
    6EC       O   56   0.988   1.506   2.470
    6EC       H   57   0.723   1.587   2.475
    6EC       H   58   0.780   1.744   2.413
    6EC       H   59   0.982   1.651   2.325
    6EC       H   60   0.871   1.514   2.298
    7EC       O   61   0.396   3.376   2.512
    7EC       C   62   0.293   3.406   2.570
    7EC       O   63   0.167   3.387   2.521
    7EC       C   64   0.079   3.456   2.606
    7EC       C   65   0.154   3.459   2.735
    7EC       O   66   0.290   3.464   2.694
    7EC       H   67   0.063   3.557   2.565
    7EC       H   68  -0.017   3.405   2.614
    7EC       H   69   0.138   3.368   2.794
    7EC       H   70   0.129   3.546   2.797
    8EC       O   71   0.129   1.555   3.230
    8EC       C   72   0.146   1.647   3.309
    8EC       O   73   0.167   1.633   3.442
    8EC       C   74   0.157   1.761   3.499
    8EC       C   75   0.193   1.851   3.385
    8EC       O   76   0.146   1.779   3.272
    8EC       H   77   0.054   1.776   3.533
    8EC       H   78   0.225   1.773   3.584
    8EC       H   79   0.301   1.864   3.376
    8EC       H   80   0.145   1.949   3.391
    9EC       O   81   3.154   2.496   4.035
    9EC       C   82   3.157   2.485   3.913
    9EC       O   83   3.271   2.488   3.838
    9EC       C   84   3.230   2.496   3.703
    9EC       C   85   3.094   2.433   3.706
    9EC       O   86   3.046   2.467   3.836
    9EC       H   87   3.227   2.601   3.674
    9EC       H   88   3.298   2.442   3.637
    9EC       H   89   3.098   2.325   3.697
    9EC       H   90   3.027   2.473   3.629
   10EC       O   91   0.903   3.014   1.487
   10EC       C   92   1.017   2.980   1.460
   10EC       O   93   1.074   2.986   1.336
   10EC       C   94   1.195   2.914   1.343
   10EC       C   95   1.231   2.924   1.487
   10EC       O   96   1.105   2.928   1.552
   10EC       H   97   1.176   2.811   1.311
   10EC       H   98   1.270   2.958   1.278
   10EC       H   99   1.285   3.016   1.510
   10EC       H  100   1.290   2.838   1.523
   11EC       O  101   2.674   1.512   2.882
   11EC       C  102   2.621   1.518   2.772
   11EC       O  103   2.525   1.432   2.727
   11EC       C  104   2.509   1.457   2.589
   11EC       C  105   2.553   1.600   2.577
   11EC       O  106   2.652   1.612   2.678
   11EC       H  107   2.574   1.389   2.534
   11EC       H  108   2.406   1.443   2.558
   11EC       H  109   2.472   1.670   2.598
   11EC       H  110   2.595   1.623   2.478
   12EC       O  111   0.569   2.802   0.356
   12EC       C  112   0.508   2.696   0.353
   12EC       O  113   0.467   2.627   0.462
   12EC       C  114   0.422   2.501   0.417
   12EC       C  115   0.382   2.529   0.276
   12EC       O  116   0.472   2.632   0.237
   12EC       H  117   0.506   2.431   0.423
   12EC       H  118   0.339   2.464   0.477
   12EC       H  119   0.280   2.567   0.268
   12EC       H  120   0.393   2.442   0.210
   13EC       O  121   2.677   0.812   2.998
   13EC       C  122   2.622   0.881   2.914
   13EC       O  123   2.627   1.017   2.908
   13EC       C  124   2.531   1.057   2.813
   13EC       C  125   2.521   0.938   2.724
   13EC       O  126   2.546   0.829   2.812
   13EC       H  127   2.437   1.078   2.865
   13EC       H  128   2.564   1.146   2.760
   13EC       H  129   2.598   0.938   2.646
   13EC       H  130   2.422   0.928   2.677
   14EC       O  131   3.681   0.558   2.701
   14EC       C  132   3.675   0.560   2.823
   14EC       O  133   3.589   0.637   2.895
   14EC       C  134   3.629   0.629   3.029
   14EC       C  135   3.699   0.496   3.035
   14EC       O  136   3.754   0.484   2.904
   14EC       H  137   3.697   0.712   3.050
   14EC       H  138   3.544   0.634   3.097
   14EC       H  139   3.629   0.414   3.051
   14EC       H  140   3.778   0.493   3.111
   15EC       O  141   1.931   3.345   1.749
   15EC       C  142   1.876   3.261   1.680
   15EC       O  143   1.875   3.259   1.544
   15EC       C  144   1.781   3.162   1.505
   15EC       C  145   1.778   3.069   1.622
   15EC       O  146   1.804   3.156   1.732
   15EC       H  147   1.685   3.212   1.489
   15EC       H  148   1.812   3.112   1.413
   15EC       H  149   1.857   2.994   1.617
   15EC       H  150   1.681   3.020   1.635
   16EC       O  151   0.926   0.515   0.457
   16EC       C  152   0.856   0.428   0.408
   16EC       O  153   0.721   0.435   0.396
   16EC       C  154   0.677   0.306   0.359
   16EC       C  155   0.796   0.249   0.291
   16EC       O  156   0.905   0.310   0.359
   16EC       H  157   0.650   0.251   0.450
   16EC       H  158   0.590   0.311   0.294
   16EC       H  159   0.801   0.276   0.185
   16EC       H  160   0.802   0.139   0.299
   17EC       O  161   2.595   0.016   0.149
   17EC       C  162   2.712   0.036   0.177
   17EC       O  163   2.759   0.146   0.242
   17EC       C  164   2.899   0.142   0.233
   17EC       C  165   2.927  -0.004   0.216
   17EC       O  166   2.813  -0.050   0.145
   17EC       H  167   2.929   0.201   0.145
   17EC       H  168   2.946   0.184   0.322
   17EC       H  169   2.934  -0.056   0.312
   17EC       H  170   3.019  -0.023   0.158
   18EC       O  171   1.553   1.910   0.289
   18EC       C  172   1.478   1.911   0.386
   18EC       O  173   1.480   2.003   0.485
   18EC       C  174   1.397   1.955   0.588
   18EC       C  175   1.302   1.866   0.514
   18EC       O  176   1.382   1.816   0.407
   18EC       H  177   1.458   1.900   0.660
   18EC       H  178   1.345   2.036   0.639
   18EC       H  179   1.217   1.921   0.472
   18EC       H  180   1.264   1.783   0.575
   19EC       O  181   2.744   1.372   1.683
   19EC       C  182   2.755   1.445   1.587
   19EC       O  183   2.677   1.439   1.475
   19EC       C  184   2.737   1.522   1.379
   19EC       C  185   2.813   1.621   1.463
   19EC       O  186   2.849   1.544   1.577
   19EC       H  187   2.803   1.461   1.317
   19EC       H  188   2.663   1.571   1.315
   19EC       H  189   2.750   1.704   1.494
   19EC       H  190   2.902   1.660   1.412
   20EC       O  191   2.802   1.235   3.760
   20EC       C  192   2.905   1.174   3.737
   20EC       O  193   2.916   1.071   3.648
   20EC       C  194   3.043   1.013   3.669
   20EC       C  195   3.122   1.126   3.725
   20EC       O  196   3.025   1.201   3.797
   20EC       H  197   3.032   0.930   3.740
   20EC       H  198   3.085   0.975   3.576
   20EC       H  199   3.165   1.190   3.647
   20EC       H  200   3.202   1.093   3.792
   21EC       O  201   1.417   0.729   0.366
   21EC       C  202   1.440   0.726   0.246
   21EC       O  203   1.510   0.821   0.178
   21EC       C  204   1.492   0.794   0.041
   21EC       C  205   1.463   0.647   0.040
   21EC       O  206   1.396   0.627   0.163
   21EC       H  207   1.407   0.854   0.005
   21EC       H  208   1.581   0.819  -0.017
   21EC       H  209   1.554   0.587   0.038
   21EC       H  210   1.399   0.617  -0.044
   22EC       O  211   2.969   0.966   2.752
   22EC       C  212   2.941   0.990   2.635
   22EC       O  213   2.858   1.089   2.594
   22EC       C  214   2.834   1.068   2.457
   22EC       C  215   2.955   0.993   2.413
   22EC       O  216   2.991   0.919   2.529
   22EC       H  217   2.742   1.008   2.447
   22EC       H  218   2.821   1.162   2.403
   22EC       H  219   3.038   1.060   2.387
   22EC       H  220   2.936   0.925   2.329
   23EC       O  221   1.334   1.504  -0.132
   23EC       C  222   1.298   1.577  -0.041
   23EC       O  223   1.318   1.712  -0.038
   23EC       C  224   1.284   1.755   0.091
   23EC       C  225   1.187   1.651   0.137
   23EC       O  226   1.233   1.534   0.071
   23EC       H  227   1.375   1.756   0.152
   23EC       H  228   1.240   1.855   0.091
   23EC       H  229   1.085   1.672   0.105
   23EC       H  230   1.188   1.636   0.246
   24EC       O  231   3.367   2.262   1.478
   24EC       C  232   3.292   2.326   1.550
   24EC       O  233   3.319   2.449   1.600
   24EC       C  234   3.221   2.477   1.697
   24EC       C  235   3.106   2.392   1.652
   24EC       O  236   3.170   2.281   1.592
   24EC       H  237   3.259   2.446   1.795
   24EC       H  238   3.196   2.583   1.700
   24EC       H  239   3.045   2.443   1.577
   24EC       H  240   3.042   2.360   1.735
   25EC       O  241   0.610   1.825   1.680
   25EC       C  242   0.570   1.930   1.632
   25EC       O  243   0.590   1.967   1.502
   25EC       C  244   0.552   2.102   1.493
   25EC       C  245   0.453   2.117   1.605
   25EC       O  246   0.501   2.025   1.702
   25EC       H  247   0.641   2.165   1.508
   25EC       H  248   0.508   2.125   1.396
   25EC       H  249   0.352   2.087   1.575
   25EC       H  250   0.450   2.218   1.646
   26EC       O  251   2.039   0.875   0.908
   26EC       C  252   2.039   0.874   0.786
   26EC       O  253   1.962   0.953   0.706
   26EC       C  254   1.973   0.904   0.575
   26EC       C  255   2.106   0.835   0.577
   26EC       O  256   2.117   0.789   0.711
   26EC       H  257   1.891   0.834   0.558
   26EC       H  258   1.969   0.984   0.501
   26EC       H  259   2.188   0.905   0.557
   26EC       H  260   2.112   0.751   0.507
   27EC       O  261   3.381   4.026   2.693
   27EC       C  262   3.349   3.908   2.696
   27EC       O  263   3.227   3.862   2.734
   27EC       C  264   3.239   3.722   2.747
   27EC       C  265   3.352   3.690   2.655
   27EC       O  266   3.433   3.806   2.662
   27EC       H  267   3.263   3.699   2.852
   27EC       H  268   3.146   3.672   2.719
   27EC       H  269   3.318   3.676   2.552
   27EC       H  270   3.408   3.601   2.686
   28EC       O  271   1.791   2.372  -0.183
   28EC       C  272   1.822   2.456  -0.100
   28EC       O  273   1.950   2.484  -0.064
   28EC       C  274   1.943   2.566   0.051
   28EC       C  275   1.809   2.631   0.036
   28EC       O  276   1.732   2.532  -0.030
   28EC       H  277   1.949   2.502   0.139
   28EC       H  278   2.024   2.639   0.053
   28EC       H  279   1.813   2.720  -0.026
   28EC       H  280   1.764   2.657   0.133
   29EC       O  281   3.284   0.015   0.455
   29EC       C  282   3.261   0.053   0.569
   29EC       O  283   3.355   0.067   0.667
   29EC       C  284   3.286   0.087   0.788
   29EC       C  285   3.156   0.146   0.742
   29EC       O  286   3.136   0.085   0.615
   29EC       H  287   3.273  -0.010   0.837
   29EC       H  288   3.341   0.154   0.854
   29EC       H  289   3.163   0.254   0.729
   29EC       H  290   3.073   0.123   0.809
   30EC       O  291   3.246   0.874   3.648
   30EC       C  292   3.321   0.931   3.570
   30EC       O  293   3.448   0.891   3.541
   30EC       C  294   3.508   0.995   3.468
   30EC       C  295   3.390   1.063   3.405
   30EC       O  296   3.287   1.044   3.501
   30EC       H  297   3.561   1.061   3.538
   30EC       H  298   3.578   0.957   3.394
   30EC       H  299   3.361   1.016   3.311
   30EC       H  300   3.407   1.170   3.387
   31EC       O  301   2.732   3.406   2.249
   31EC       C  302   2.642   3.423   2.168
   31EC       O  303   2.569   3.323   2.111
   31EC       C  304   2.494   3.381   2.008
   31EC       C  305   2.482   3.524   2.051
   31EC       O  306   2.602   3.546   2.123
   31EC       H  307   2.551   3.371   1.914
   31EC       H  308   2.397   3.333   1.996
   31EC       H  309   2.397   3.539   2.119
   31EC       H  310   2.473   3.594   1.968
   32EC       O  311   1.078   0.327   1.298
   32EC       C  312   1.190   0.279   1.289
   32EC       O  313   1.242   0.225   1.176
   32EC       C  314   1.362   0.160   1.213
   32EC       C  315   1.403   0.235   1.335
   32EC       O  316   1.279   0.273   1.393
   32EC       H  317   1.339   0.055   1.233
   32EC       H  318   1.437   0.166   1.133
   32EC       H  319   1.460   0.325   1.311
   32EC       H  320   1.461   0.173   1.405
   33EC       O  321   2.016   2.534   3.182
   33EC       C  322   2.047   2.512   3.066
   33EC       O  323   1.990   2.570   2.957
   33EC       C  324   2.037   2.501   2.845
   33EC       C  325   2.168   2.445   2.891
   33EC       O  326   2.145   2.424   3.030
   33EC       H  327   1.964   2.422   2.820
   33EC       H  328   2.048   2.567   2.759
   33EC       H  329   2.249   2.517   2.879
   33EC       H  330   2.195   2.352   2.841
   34EC       O  331   1.603   3.754   1.160
   34EC       C  332   1.606   3.691   1.055
   34EC       O  333   1.719   3.645   0.995
   34EC       C  334   1.681   3.602   0.866
   34EC       C  335   1.536   3.568   0.884
   34EC       O  336   1.494   3.660   0.983
   34EC       H  337   1.696   3.684   0.796
   34EC       H  338   1.740   3.516   0.834
   34EC       H  339   1.522   3.466   0.921
   34EC       H  340   1.478   3.580   0.792
   35EC       O  341   2.455   0.815   0.989
   35EC       C  342   2.483   0.824   0.871
   35EC       O  343   2.409   0.890   0.778
   35EC       C  344   2.460   0.855   0.652
   35EC       C  345   2.602   0.819   0.683
   35EC       O  346   2.593   0.765   0.814
   35EC       H  347   2.403   0.771   0.613
   35EC       H  348   2.454   0.938   0.581
   35EC       H  349   2.668   0.906   0.684
   35EC       H  350   2.643   0.744   0.613
   36EC       O  351   1.503   3.258   0.842
   36EC       C  352   1.624   3.260   0.831
   36EC       O  353   1.699   3.160   0.775
   36EC       C  354   1.833   3.188   0.804
   36EC       C  355   1.833   3.337   0.822
   36EC       O  356   1.704   3.362   0.875
   36EC       H  357   1.861   3.136   0.896
   36EC       H  358   1.900   3.156   0.724
   36EC       H  359   1.844   3.389   0.727
   36EC       H  360   1.911   3.372   0.891
   37EC       O  361   2.633   3.720   1.344
   37EC       C  362   2.532   3.698   1.409
   37EC       O  363   2.407   3.740   1.375
   37EC       C  364   2.324   3.716   1.485
   37EC       C  365   2.393   3.603   1.555
   37EC       O  366   2.530   3.627   1.526
   37EC       H  367   2.321   3.807   1.546
   37EC       H  368   2.223   3.690   1.455
   37EC       H  369   2.365   3.506   1.514
   37EC       H  370   2.376   3.603   1.663
   38EC       O  371   3.400   0.763   2.576
   38EC       C  372   3.282   0.734   2.591
   38EC       O  373   3.235   0.641   2.678
   38EC       C  374   3.099   0.621   2.647
   38EC       C  375   3.060   0.751   2.583
   38EC       O  376   3.180   0.792   2.519
   38EC       H  377   3.091   0.537   2.578
   38EC       H  378   3.040   0.600   2.736
   38EC       H  379   3.031   0.826   2.656
   38EC       H  380   2.979   0.739   2.509
   39EC       O  381   2.373   1.853   1.653
   39EC       C  382   2.295   1.763   1.678
   39EC       O  383   2.274   1.711   1.802
   39EC       C  384   2.198   1.594   1.786
   39EC       C  385   2.126   1.620   1.657
   39EC       O  386   2.218   1.699   1.584
   39EC       H  387   2.266   1.509   1.779
   39EC       H  388   2.129   1.579   1.869
   39EC       H  389   2.034   1.677   1.671
   39EC       H  390   2.103   1.528   1.602
   40EC       O  391   1.177   1.532   2.478
   40EC       C  392   1.239   1.510   2.581
   40EC       O  393   1.360   1.564   2.612
   40EC       C  394   1.407   1.495   2.726
   40EC       C  395   1.281   1.447   2.790
   40EC       O  396   1.194   1.426   2.679
   40EC       H  397   1.470   1.412   2.692
   40EC       H  398   1.465   1.560   2.791
   40EC       H  399   1.237   1.523   2.856
   40EC       H  400   1.294   1.354   2.847
   41EC       O  401   1.571   2.763   2.542
   41EC       C  402   1.590   2.797   2.426
   41EC       O  403   1.493   2.836   2.339
   41EC       C  404   1.552   2.842   2.212
   41EC       C  405   1.696   2.866   2.243
   41EC       O  406   1.714   2.799   2.367
   41EC       H  407   1.536   2.746   2.161
   41EC       H  408   1.509   2.922   2.151
   41EC       H  409   1.718   2.972   2.257
   41EC       H  410   1.764   2.826   2.167
   42EC       O  411   3.224   1.976   3.124
   42EC       C  412   3.296   2.033   3.044
   42EC       O  413   3.270   2.046   2.911
   42EC       C  414   3.388   2.095   2.851
   42EC       C  415   3.455   2.167   2.964
   42EC       O  416   3.415   2.092   3.078
   42EC       H  417   3.447   2.010   2.815
   42EC       H  418   3.365   2.161   2.767
   42EC       H  419   3.418   2.270   2.975
   42EC       H  420   3.564   2.169   2.955
   43EC       O  421   0.649   1.499   1.268
   43EC       C  422   0.640   1.488   1.146
   43EC       O  423   0.559   1.398   1.083
   43EC       C  424   0.595   1.401   0.947
   43EC       C  425   0.652   1.538   0.930
   43EC       O  426   0.710   1.564   1.057
   43EC       H  427   0.670   1.322   0.929
   43EC       H  428   0.509   1.383   0.882
   43EC       H  429   0.575   1.612   0.910
   43EC       H  430   0.728   1.543   0.851
   44EC       O  431   1.395   1.279   1.433
   44EC       C  432   1.277   1.306   1.419
   44EC       O  433   1.178   1.272   1.507
   44EC       C  434   1.055   1.299   1.443
   44EC       C  435   1.092   1.406   1.345
   44EC       O  436   1.226   1.374   1.311
   44EC       H  437   1.021   1.207   1.393
   44EC       H  438   0.980   1.332   1.514
   44EC       H  439   1.089   1.505   1.390
   44EC       H  440   1.029   1.405   1.255
   45EC       O  441   2.340   0.251   1.258
   45EC       C  442   2.303   0.314   1.356
   45EC       O  443   2.357   0.303   1.480
   45EC       C  444   2.271   0.372   1.568
   45EC       C  445   2.206   0.472   1.478
   45EC       O  446   2.200   0.404   1.354
   45EC       H  447   2.199   0.300   1.610
   45EC       H  448   2.327   0.419   1.649
   45EC       H  449   2.266   0.563   1.467
   45EC       H  450   2.105   0.500   1.512
   46EC       O  451   3.646   1.583   3.273
   46EC       C  452   3.617   1.516   3.175
   46EC       O  453   3.654   1.545   3.047
   46EC       C  454   3.580   1.459   2.964
   46EC       C  455   3.551   1.342   3.053
   46EC       O  456   3.541   1.402   3.181
   46EC       H  457   3.489   1.511   2.932
   46EC       H  458   3.638   1.430   2.875
   46EC       H  459   3.633   1.270   3.054
   46EC       H  460   3.458   1.291   3.027
   47EC       O  461   0.573   3.229   3.660
   47EC       C  462   0.521   3.334   3.692
   47EC       O  463   0.387   3.355   3.701
   47EC       C  464   0.368   3.494   3.717
   47EC       C  465   0.497   3.538   3.779
   47EC       O  466   0.591   3.447   3.724
   47EC       H  467   0.353   3.538   3.618
   47EC       H  468   0.282   3.516   3.780
   47EC       H  469   0.496   3.526   3.888
   47EC       H  470   0.523   3.641   3.755
   48EC       O  471   0.670   3.039   3.226
   48EC       C  472   0.714   3.118   3.308
   48EC       O  473   0.642   3.219   3.365
   48EC       C  474   0.733   3.301   3.433
   48EC       C  475   0.846   3.208   3.463
   48EC       O  476   0.843   3.118   3.353
   48EC       H  477   0.763   3.382   3.366
   48EC       H  478   0.689   3.344   3.524
   48EC       H  479   0.830   3.152   3.555
   48EC       H  480   0.943   3.259   3.469
   49EC       O  481   0.990   2.340   3.459
   49EC       C  482   1.027   2.359   3.573
   49EC       O  483   0.959   2.433   3.666
   49EC       C  484   1.045   2.451   3.775
   49EC       C  485   1.136   2.333   3.765
   49EC       O  486   1.143   2.309   3.626
   49EC       H  487   1.098   2.546   3.762
   49EC       H  488   0.990   2.453   3.869
   49EC       H  489   1.094   2.245   3.814
   49EC       H  490   1.236   2.352   3.806
   50EC       O  491   3.001   0.946   2.172
   50EC       C  492   3.084   0.973   2.087
   50EC       O  493   3.185   0.891   2.048
   50EC       C  494   3.271   0.968   1.967
   50EC       C  495   3.180   1.074   1.913
   50EC       O  496   3.087   1.092   2.019
   50EC       H  497   3.351   1.009   2.030
   50EC       H  498   3.316   0.908   1.887
   50EC       H  499   3.127   1.041   1.824
   50EC       H  500   3.233   1.168   1.892
   51EC       O  501   1.193   3.562   1.289
   51EC       C  502   1.124   3.628   1.366
   51EC       O  503   1.111   3.603   1.499
   51EC       C  504   1.006   3.685   1.545
   51EC       C  505   1.007   3.798   1.448
   51EC       O  506   1.050   3.737   1.328
   51EC       H  507   0.913   3.627   1.541
   51EC       H  508   1.023   3.718   1.648
   51EC       H  509   1.078   3.876   1.476
   51EC       H  510   0.908   3.844   1.435
   52EC       O  511   2.021   0.725  -0.018
   52EC       C  512   2.029   0.817   0.062
   52EC       O  513   2.145   0.860   0.119
   52EC       C  514   2.108   0.949   0.222
   52EC       C  515   1.975   1.000   0.176
   52EC       O  516   1.921   0.889   0.106
   52EC       H  517   2.101   0.893   0.316
   52EC       H  518   2.181   1.029   0.233
   52EC       H  519   1.984   1.084   0.108
   52EC       H  520   1.909   1.028   0.259
   53EC       O  521   3.501   1.468   1.009
   53EC       C  522   3.570   1.369   0.987
   53EC       O  523   3.546   1.245   1.037
   53EC       C  524   3.660   1.167   1.010
   53EC       C  525   3.719   1.235   0.890
   53EC       O  526   3.683   1.371   0.910
   53EC       H  527   3.726   1.171   1.097
   53EC       H  528   3.634   1.063   0.990
   53EC       H  529   3.674   1.199   0.797
   53EC       H  530   3.827   1.223   0.884
   54EC       O  531   2.907   1.967   3.274
   54EC       C  532   2.878   1.968   3.392
   54EC       O  533   2.968   1.966   3.495
   54EC       C  534   2.895   1.943   3.613
   54EC       C  535   2.758   1.995   3.578
   54EC       O  536   2.749   1.969   3.439
   54EC       H  537   2.894   1.835   3.633
   54EC       H  538   2.938   1.995   3.698
   54EC       H  539   2.750   2.103   3.595
   54EC       H  540   2.678   1.944   3.632
   55EC       O  541   2.930   2.524   0.835
   55EC       C  542   2.967   2.409   0.822
   55EC       O  543   2.942   2.308   0.911
   55EC       C  544   3.022   2.199   0.873
   55EC       C  545   3.043   2.222   0.727
   55EC       O  546   3.042   2.364   0.716
   55EC       H  547   3.116   2.204   0.930
   55EC       H  548   2.972   2.104   0.893
   55EC       H  549   2.961   2.182   0.667
   55EC       H  550   3.138   2.181   0.690
   56EC       O  551   1.211   1.698   1.229
   56EC       C  552   1.147   1.746   1.321
   56EC       O  553   1.170   1.723   1.453
   56EC       C  554   1.061   1.776   1.525
   56EC       C  555   1.010   1.883   1.433
   56EC       O  556   1.040   1.831   1.304
   56EC       H  557   0.988   1.696   1.540
   56EC       H  558   1.092   1.816   1.621
   56EC       H  559   1.064   1.977   1.446
   56EC       H  560   0.903   1.900   1.444
   57EC       O  561   0.462   1.924   3.036
   57EC       C  562   0.524   1.839   2.974
   57EC       O  563   0.587   1.732   3.031
   57EC       C  564   0.665   1.673   2.930
   57EC       C  565   0.594   1.713   2.805
   57EC       O  566   0.539   1.840   2.838
   57EC       H  567   0.766   1.716   2.936
   57EC       H  568   0.671   1.565   2.942
   57EC       H  569   0.513   1.644   2.780
   57EC       H  570   0.661   1.722   2.718
   58EC       O  571   2.755   3.843   3.192
   58EC       C  572   2.753   3.829   3.071
   58EC       O  573   2.785   3.926   2.981
   58EC       C  574   2.747   3.879   2.854
   58EC       C  575   2.751   3.731   2.871
   58EC       O  576   2.717   3.713   3.008
   58EC       H  577   2.646   3.915   2.833
   58EC       H  578   2.814   3.914   2.776
   58EC       H  579   2.852   3.690   2.855
   58EC       H  580   2.681   3.678   2.807
   59EC       O  581   3.152   0.859   1.486
   59EC       C  582   3.155   0.868   1.364
   59EC       O  583   3.047   0.851   1.283
   59EC       C  584   3.097   0.844   1.151
   59EC       C  585   3.225   0.919   1.160
   59EC       O  586   3.269   0.894   1.292
   59EC       H  587   3.112   0.738   1.126
   59EC       H  588   3.027   0.888   1.080
   59EC       H  589   3.211   1.027   1.147
   59EC       H  590   3.300   0.885   1.087
   60EC       O  591   3.444   3.302  -0.175
   60EC       C  592   3.444   3.271  -0.057
   60EC       O  593   3.466   3.145  -0.009
   60EC       C  594   3.433   3.147   0.127
   60EC       C  595   3.454   3.290   0.165
   60EC       O  596   3.421   3.360   0.045
   60EC       H  597   3.329   3.116   0.138
   60EC       H  598   3.497   3.080   0.185
   60EC       H  599   3.558   3.312   0.190
   60EC       H  600   3.390   3.323   0.247
   61EC       O  601   1.001   2.249   2.563
   61EC       C  602   0.970   2.132   2.583
   61EC       O  603   0.976   2.070   2.704
   61EC       C  604   0.956   1.933   2.679
   61EC       C  605   0.878   1.932   2.552
   61EC       O  606   0.927   2.048   2.485
   61EC       H  607   1.054   1.885   2.668
   61EC       H  608   0.902   1.885   2.761
   61EC       H  609   0.771   1.943   2.569
   61EC       H  610   0.896   1.842   2.491
   62EC       O  611   0.191   0.231   2.150
   62EC       C  612   0.130   0.307   2.224
   62EC       O  613   0.036   0.268   2.315
   62EC       C  614  -0.026   0.386   2.361
   62EC       C  615   0.079   0.490   2.339
   62EC       O  616   0.148   0.442   2.224
   62EC       H  617  -0.115   0.404   2.300
   62EC       H  618  -0.055   0.377   2.466
   62EC       H  619   0.150   0.495   2.423
   62EC       H  620   0.038   0.589   2.321
   63EC       O  621   3.124   1.423  -0.174
   63EC       C  622   3.114   1.455  -0.057
   63EC       O  623   3.113   1.368   0.048
   63EC       C  624   3.076   1.441   0.162
   63EC       C  625   3.119   1.580   0.127
   63EC       O  626   3.102   1.584  -0.014
   63EC       H  627   2.967   1.433   0.174
   63EC       H  628   3.125   1.404   0.252
   63EC       H  629   3.224   1.598   0.151
   63EC       H  630   3.057   1.657   0.175
   64EC       O  631   0.948   0.014   1.890
   64EC       C  632   0.864   0.049   1.970
   64EC       O  633   0.730   0.035   1.954
   64EC       C  634   0.668   0.110   2.056
   64EC       C  635   0.772   0.113   2.163
   64EC       O  636   0.894   0.111   2.089
   64EC       H  637   0.646   0.210   2.017
   64EC       H  638   0.575   0.063   2.089
   64EC       H  639   0.768   0.024   2.227
   64EC       H  640   0.767   0.202   2.226
   65EC       O  641   2.540   2.464   3.447
   65EC       C  642   2.543   2.550   3.362
   65EC       O  643   2.568   2.682   3.385
   65EC       C  644   2.539   2.751   3.266
   65EC       C  645   2.557   2.646   3.161
   65EC       O  646   2.520   2.527   3.229
   65EC       H  647   2.435   2.787   3.271
   65EC       H  648   2.605   2.837   3.251
   65EC       H  649   2.661   2.638   3.129
   65EC       H  650   2.494   2.662   3.073
   66EC       O  651   1.181   1.603   1.757
   66EC       C  652   1.273   1.538   1.710
   66EC       O  653   1.384   1.591   1.652
   66EC       C  654   1.452   1.485   1.590
   66EC       C  655   1.408   1.366   1.670
   66EC       O  656   1.276   1.401   1.709
   66EC       H  657   1.419   1.479   1.486
   66EC       H  658   1.560   1.499   1.593
   66EC       H  659   1.469   1.352   1.760
   66EC       H  660   1.408   1.273   1.612
   67EC       O  661   2.012   0.182   3.738
   67EC       C  662   2.117   0.120   3.728
   67EC       O  663   2.238   0.166   3.770
   67EC       C  664   2.335   0.078   3.719
   67EC       C  665   2.259  -0.049   3.702
   67EC       O  666   2.128  -0.004   3.672
   67EC       H  667   2.371   0.118   3.623
   67EC       H  668   2.420   0.067   3.787
   67EC       H  669   2.256  -0.108   3.794
   67EC       H  670   2.298  -0.112   3.621
   68EC       O  671   2.154   3.026   0.368
   68EC       C  672   2.085   3.006   0.269
   68EC       O  673   2.023   2.889   0.239
   68EC       C  674   1.975   2.900   0.107
   68EC       C  675   1.959   3.048   0.091
   68EC       O  676   2.061   3.101   0.173
   68EC       H  677   2.051   2.859   0.039
   68EC       H  678   1.882   2.846   0.093
   68EC       H  679   1.862   3.083   0.127
   68EC       H  680   1.971   3.081  -0.013
   69EC       O  681   2.108   1.732   0.010
   69EC       C  682   2.007   1.663   0.007
   69EC       O  683   1.885   1.705  -0.037
   69EC       C  684   1.793   1.605  -0.001
   69EC       C  685   1.877   1.482   0.006
   69EC       O  686   2.003   1.532   0.049
   69EC       H  687   1.749   1.631   0.095
   69EC       H  688   1.713   1.596  -0.076
   69EC       H  689   1.890   1.434  -0.092
   69EC       H  690   1.839   1.408   0.077
   70EC       O  691   2.666   2.234   3.852
   70EC       C  692   2.589   2.250   3.758
   70EC       O  693   2.504   2.356   3.744
   70EC       C  694   2.417   2.324   3.638
   70EC       C  695   2.497   2.228   3.556
   70EC       O  696   2.576   2.161   3.654
   70EC       H  697   2.327   2.279   3.680
   70EC       H  698   2.389   2.413   3.581
   70EC       H  699   2.563   2.278   3.486
   70EC       H  700   2.435   2.156   3.502
   71EC       O  701   1.308   1.456   2.085
   71EC       C  702   1.297   1.576   2.066
   71EC       O  703   1.201   1.634   1.989
   71EC       C  704   1.238   1.769   1.971
   71EC       C  705   1.322   1.796   2.092
   71EC       O  706   1.383   1.670   2.117
   71EC       H  707   1.295   1.777   1.878
   71EC       H  708   1.151   1.834   1.966
   71EC       H  709   1.262   1.825   2.178
   71EC       H  710   1.399   1.872   2.074
   72EC       O  711   0.209   0.777   2.924
   72EC       C  712   0.249   0.871   2.858
   72EC       O  713   0.183   0.990   2.846
   72EC       C  714   0.247   1.062   2.743
   72EC       C  715   0.386   1.005   2.745
   72EC       O  716   0.365   0.871   2.786
   72EC       H  717   0.195   1.042   2.649
   72EC       H  718   0.246   1.169   2.763
   72EC       H  719   0.449   1.055   2.819
   72EC       H  720   0.435   1.009   2.647
   73EC       O  721   3.628   3.322   2.098
   73EC       C  722   3.543   3.252   2.150
   73EC       O  723   3.456   3.173   2.082
   73EC       C  724   3.360   3.129   2.175
   73EC       C  725   3.434   3.135   2.305
   73EC       O  726   3.523   3.244   2.285
   73EC       H  727   3.275   3.197   2.172
   73EC       H  728   3.325   3.028   2.152
   73EC       H  729   3.492   3.045   2.323
   73EC       H  730   3.368   3.154   2.390
   74EC       O  731   1.356   2.562   2.384
   74EC       C  732   1.436   2.515   2.464
   74EC       O  733   1.401   2.447   2.577
   74EC       C  734   1.518   2.432   2.653
   74EC       C  735   1.626   2.437   2.550
   74EC       O  736   1.572   2.525   2.452
   74EC       H  737   1.525   2.515   2.724
   74EC       H  738   1.519   2.338   2.709
   74EC       H  739   1.644   2.340   2.504
   74EC       H  740   1.721   2.477   2.588
   75EC       O  741   2.224   1.530   2.336
   75EC       C  742   2.225   1.564   2.453
   75EC       O  743   2.149   1.508   2.552
   75EC       C  744   2.161   1.591   2.665
   75EC       C  745   2.294   1.656   2.644
   75EC       O  746   2.304   1.665   2.502
   75EC       H  747   2.079   1.663   2.664
   75EC       H  748   2.157   1.533   2.757
   75EC       H  749   2.376   1.594   2.681
   75EC       H  750   2.301   1.755   2.689
   76EC       O  751   2.069   3.280   0.702
   76EC       C  752   2.161   3.214   0.747
   76EC       O  753   2.236   3.126   0.674
   76EC       C  754   2.313   3.053   0.766
   76EC       C  755   2.323   3.145   0.884
   76EC       O  756   2.200   3.216   0.878
   76EC       H  757   2.259   2.961   0.791
   76EC       H  758   2.411   3.027   0.726
   76EC       H  759   2.405   3.216   0.873
   76EC       H  760   2.333   3.093   0.979
   77EC       O  761   1.831   3.171   0.459
   77EC       C  762   1.752   3.217   0.377
   77EC       O  763   1.651   3.303   0.407
   77EC       C  764   1.569   3.311   0.293
   77EC       C  765   1.664   3.277   0.182
   77EC       O  766   1.754   3.186   0.244
   77EC       H  767   1.488   3.238   0.302
   77EC       H  768   1.527   3.411   0.281
   77EC       H  769   1.720   3.364   0.147
   77EC       H  770   1.614   3.230   0.096
   78EC       O  771   0.649   0.147   0.610
   78EC       C  772   0.770   0.150   0.625
   78EC       O  773   0.856   0.215   0.542
   78EC       C  774   0.986   0.174   0.579
   78EC       C  775   0.969   0.136   0.723
   78EC       O  776   0.836   0.088   0.727
   78EC       H  777   1.015   0.089   0.516
   78EC       H  778   1.058   0.254   0.566
   78EC       H  779   0.978   0.222   0.789
   78EC       H  780   1.039   0.058   0.755
   79EC       O  781   2.408   0.791   2.158
   79EC       C  782   2.308   0.858   2.137
   79EC       O  783   2.244   0.867   2.018
   79EC       C  784   2.150   0.972   2.029
   79EC       C  785   2.123   0.975   2.176
   79EC       O  786   2.247   0.935   2.233
   79EC       H  787   2.197   1.064   1.993
   79EC       H  788   2.060   0.952   1.971
   79EC       H  789   2.046   0.904   2.206
   79EC       H  790   2.095   1.075   2.212
   80EC       O  791   2.780   2.941   3.693
   80EC       C  792   2.691   3.012   3.737
   80EC       O  793   2.595   3.073   3.661
   80EC       C  794   2.528   3.164   3.745
   80EC       C  795   2.549   3.105   3.881
   80EC       O  796   2.676   3.042   3.870
   80EC       H  797   2.576   3.262   3.734
   80EC       H  798   2.423   3.172   3.719
   80EC       H  799   2.474   3.029   3.905
   80EC       H  800   2.550   3.180   3.961
   81EC       O  801   0.501   0.374   1.478
   81EC       C  802   0.540   0.469   1.411
   81EC       O  803   0.570   0.592   1.460
   81EC       C  804   0.586   0.677   1.350
   81EC       C  805   0.627   0.583   1.241
   81EC       O  806   0.559   0.463   1.275
   81EC       H  807   0.491   0.726   1.329
   81EC       H  808   0.662   0.754   1.369
   81EC       H  809   0.735   0.564   1.241
   81EC       H  810   0.597   0.617   1.141
   82EC       O  811   1.705  -0.027   2.383
   82EC       C  812   1.682   0.001   2.267
   82EC       O  813   1.777   0.031   2.174
   82EC       C  814   1.709   0.080   2.061
   82EC       C  815   1.574   0.016   2.072
   82EC       O  816   1.556   0.005   2.213
   82EC       H  817   1.703   0.189   2.068
   82EC       H  818   1.760   0.053   1.968
   82EC       H  819   1.572  -0.085   2.029
   82EC       H  820   1.494   0.075   2.027
   83EC       O  821   1.105   3.638   0.134
   83EC       C  822   1.158   3.631   0.244
   83EC       O  823   1.276   3.568   0.269
   83EC       C  824   1.289   3.561   0.409
   83EC       C  825   1.207   3.678   0.456
   83EC       O  826   1.105   3.686   0.358
   83EC       H  827   1.249   3.466   0.443
   83EC       H  828   1.394   3.569   0.440
   83EC       H  829   1.265   3.771   0.456
   83EC       H  830   1.164   3.662   0.555
   84EC       O  831   1.824   2.351   1.311
   84EC       C  832   1.834   2.239   1.359
   84EC       O  833   1.934   2.199   1.443
   84EC       C  834   1.923   2.059   1.456
   84EC       C  835   1.778   2.035   1.427
   84EC       O  836   1.746   2.137   1.335
   84EC       H  837   1.988   2.013   1.381
   84EC       H  838   1.952   2.026   1.555
   84EC       H  839   1.716   2.046   1.517
   84EC       H  840   1.759   1.936   1.384
   85EC       O  841   2.442   0.663   2.933
   85EC       C  842   2.461   0.552   2.982
   85EC       O  843   2.435   0.519   3.111
   85EC       C  844   2.493   0.393   3.133
   85EC       C  845   2.495   0.333   2.996
   85EC       O  846   2.512   0.446   2.912
   85EC       H  847   2.594   0.407   3.174
   85EC       H  848   2.434   0.333   3.203
   85EC       H  849   2.400   0.284   2.971
   85EC       H  850   2.577   0.261   2.982
   86EC       O  851   3.502   2.769   1.468
   86EC       C  852   3.381   2.756   1.472
   86EC       O  853   3.298   2.767   1.364
   86EC       C  854   3.167   2.770   1.413
   86EC       C  855   3.179   2.697   1.544
   86EC       O  856   3.310   2.729   1.586
   86EC       H  857   3.137   2.874   1.427
   86EC       H  858   3.097   2.721   1.345
   86EC       H  859   3.171   2.588   1.531
   86EC       H  860   3.105   2.730   1.618
   87EC       O  861   0.824   2.412   1.393
   87EC       C  862   0.877   2.429   1.284
   87EC       O  863   0.975   2.521   1.259
   87EC       C  864   0.991   2.525   1.119
   87EC       C  865   0.945   2.389   1.076
   87EC       O  866   0.845   2.358   1.172
   87EC       H  867   0.928   2.605   1.079
   87EC       H  868   1.095   2.544   1.091
   87EC       H  869   1.025   2.315   1.082
   87EC       H  870   0.903   2.389   0.975
   88EC       O  871   1.855  -0.026   3.136
   88EC       C  872   1.896   0.079   3.184
   88EC       O  873   2.025   0.122   3.178
   88EC       C  874   2.035   0.232   3.265
   88EC       C  875   1.895   0.285   3.268
   88EC       O  876   1.817   0.167   3.252
   88EC       H  877   2.069   0.196   3.362
   88EC       H  878   2.106   0.306   3.228
   88EC       H  879   1.875   0.353   3.186
   88EC       H  880   1.871   0.334   3.363
   89EC       O  881   3.571   1.290   2.363
   89EC       C  882   3.551   1.409   2.385
   89EC       O  883   3.646   1.506   2.379
   89EC       C  884   3.589   1.622   2.434
   89EC       C  885   3.443   1.601   2.411
   89EC       O  886   3.429   1.460   2.419
   89EC       H  887   3.615   1.626   2.541
   89EC       H  888   3.626   1.712   2.385
   89EC       H  889   3.412   1.634   2.312
   89EC       H  890   3.380   1.651   2.487
   90EC       O  891   3.574   0.343  -0.109
   90EC       C  892   3.581   0.317   0.010
   90EC       O  893   3.508   0.378   0.107
   90EC       C  894   3.562   0.336   0.230
   90EC       C  895   3.624   0.204   0.197
   90EC       O  896   3.664   0.221   0.062
   90EC       H  897   3.637   0.410   0.262
   90EC       H  898   3.486   0.328   0.307
   90EC       H  899   3.552   0.122   0.202
   90EC       H  900   3.711   0.180   0.260
   91EC       O  901   3.692   1.773   0.338
   91EC       C  902   3.704   1.795   0.218
   91EC       O  903   3.754   1.706   0.128
   91EC       C  904   3.773   1.778   0.008
   91EC       C  905   3.674   1.889   0.019
   91EC       O  906   3.669   1.913   0.159
   91EC       H  907   3.877   1.814   0.006
   91EC       H  908   3.755   1.715  -0.080
   91EC       H  909   3.575   1.860  -0.016
   91EC       H  910   3.705   1.980  -0.034
   92EC       O  911   2.726   0.989   1.337
   92EC       C  912   2.681   0.880   1.303
   92EC       O  913   2.645   0.847   1.176
   92EC       C  914   2.575   0.725   1.184
   92EC       C  915   2.629   0.664   1.310
   92EC       O  916   2.658   0.777   1.391
   92EC       H  917   2.468   0.746   1.192
   92EC       H  918   2.593   0.662   1.097
   92EC       H  919   2.722   0.608   1.292
   92EC       H  920   2.557   0.598   1.360
   93EC       O  921   1.567   0.853   1.190
   93EC       C  922   1.519   0.922   1.101
   93EC       O  923   1.386   0.951   1.089
   93EC       C  924   1.368   1.009   0.963
   93EC       C  925   1.503   1.067   0.933
   93EC       O  926   1.591   0.977   0.999
   93EC       H  927   1.341   0.930   0.892
   93EC       H  928   1.290   1.085   0.964
   93EC       H  929   1.515   1.167   0.977
   93EC       H  930   1.526   1.072   0.826
   94EC       O  931   0.353   1.712   1.868
   94EC       C  932   0.469   1.711   1.906
   94EC       O  933   0.528   1.812   1.976
   94EC       C  934   0.666   1.784   1.979
   94EC       C  935   0.670   1.635   1.965
   94EC       O  936   0.556   1.608   1.884
   94EC       H  937   0.714   1.835   1.895
   94EC       H  938   0.712   1.818   2.072
   94EC       H  939   0.658   1.584   2.061
   94EC       H  940   0.761   1.599   1.916
   95EC       O  941   3.109   2.446   1.137
   95EC       C  942   3.230   2.458   1.146
   95EC       O  943   3.321   2.373   1.090
   95EC       C  944   3.447   2.407   1.144
   95EC       C  945   3.429   2.551   1.180
   95EC       O  946   3.292   2.559   1.215
   95EC       H  947   3.465   2.344   1.231
   95EC       H  948   3.527   2.392   1.071
   95EC       H  949   3.448   2.618   1.096
   95EC       H  950   3.492   2.582   1.265
   96EC       O  951   3.450   0.117   2.140
   96EC       C  952   3.408   0.195   2.056
   96EC       O  953   3.314   0.291   2.078
   96EC       C  954   3.277   0.341   1.952
   96EC       C  955   3.399   0.315   1.869
   96EC       O  956   3.451   0.197   1.926
   96EC       H  957   3.190   0.286   1.916
   96EC       H  958   3.252   0.448   1.957
   96EC       H  959   3.473   0.395   1.878
   96EC       H  960   3.375   0.300   1.763
   97EC       O  961   3.191   3.207   1.371
   97EC       C  962   3.294   3.215   1.435
   97EC       O  963   3.316   3.304   1.536
   97EC       C  964   3.453   3.298   1.567
   97EC       C  965   3.491   3.160   1.524
   97EC       O  966   3.404   3.136   1.414
   97EC       H  967   3.505   3.376   1.509
   97EC       H  968   3.471   3.315   1.673
   97EC       H  969   3.471   3.086   1.601
   97EC       H  970   3.595   3.152   1.492
   98EC       O  971   3.493   2.710   3.185
   98EC       C  972   3.554   2.617   3.235
   98EC       O  973   3.566   2.594   3.369
   98EC       C  974   3.663   2.494   3.385
   98EC       C  975   3.656   2.420   3.255
   98EC       O  976   3.621   2.522   3.163
   98EC       H  977   3.760   2.541   3.401
   98EC       H  978   3.640   2.429   3.470
   98EC       H  979   3.578   2.343   3.255
   98EC       H  980   3.751   2.374   3.227
   99EC       O  981   0.280   2.263   2.682
   99EC       C  982   0.269   2.237   2.563
   99EC       O  983   0.353   2.281   2.466
   99EC       C  984   0.292   2.250   2.343
   99EC       C  985   0.206   2.133   2.377
   99EC       O  986   0.169   2.159   2.512
   99EC       H  987   0.234   2.336   2.310
   99EC       H  988   0.366   2.225   2.267
   99EC       H  989   0.261   2.038   2.373
   99EC       H  990   0.117   2.125   2.314
  100EC       O  991   1.674   1.263   2.635
  100EC       C  992   1.680   1.265   2.757
  100EC       O  993   1.691   1.155   2.836
  100EC       C  994   1.671   1.197   2.969
  100EC       C  995   1.712   1.341   2.964
  100EC       O  996   1.677   1.380   2.831
  100EC       H  997   1.565   1.185   2.993
  100EC       H  998   1.731   1.140   3.039
  100EC       H  999   1.819   1.354   2.977
  100EC       H 1000   1.659   1.403   3.037
  101EC       O 1001   1.244   2.706   1.730
  101EC       C 1002   1.267   2.741   1.844
  101EC       O 1003   1.229   2.671   1.956
  101EC       C 1004   1.251   2.756   2.066
  101EC       C 1005   1.359   2.848   2.017
  101EC       O 1006   1.332   2.857   1.878
  101EC       H 1007   1.158   2.809   2.087
  101EC       H 1008   1.281   2.700   2.154
  101EC       H 1009   1.458   2.805   2.031
  101EC       H 1010   1.355   2.947   2.063
  102EC       O 1011   1.434   1.728   3.002
  102EC       C 1012   1.434   1.703   3.121
  102EC       O 1013   1.350   1.616   3.183
  102EC       C 1014   1.366   1.634   3.321
  102EC       C 1015   1.505   1.689   3.332
  102EC       O 1016   1.520   1.762   3.211
  102EC       H 1017   1.290   1.706   3.355
  102EC       H 1018   1.354   1.541   3.376
  102EC       H 1019   1.580   1.610   3.335
  102EC       H 1020   1.518   1.755   3.419
  103EC       O 1021   2.727   3.005   3.043
  103EC       C 1022   2.764   3.029   2.929
  103EC       O 1023   2.889   3.005   2.881
  103EC       C 1024   2.898   3.068   2.756
  103EC       C 1025   2.755   3.072   2.711
  103EC       O 1026   2.683   3.084   2.833
  103EC       H 1027   2.939   3.169   2.771
  103EC       H 1028   2.961   3.013   2.687
  103EC       H 1029   2.725   2.979   2.661
  103EC       H 1030   2.733   3.157   2.645
  104EC       O 1031   3.019   1.161   2.857
  104EC       C 1032   2.990   1.248   2.937
  104EC       O 1033   2.881   1.245   3.019
  104EC       C 1034   2.871   1.372   3.078
  104EC       C 1035   3.012   1.422   3.074
  104EC       O 1036   3.064   1.362   2.957
  104EC       H 1037   2.803   1.433   3.016
  104EC       H 1038   2.832   1.367   3.179
  104EC       H 1039   3.070   1.389   3.160
  104EC       H 1040   3.018   1.532   3.067
  105EC       O 1041   1.459   0.665   2.032
  105EC       C 1042   1.509   0.767   1.986
  105EC       O 1043   1.439   0.867   1.927
  105EC       C 1044   1.534   0.953   1.867
  105EC       C 1045   1.656   0.929   1.950
  105EC       O 1046   1.643   0.793   1.988
  105EC       H 1047   1.547   0.922   1.763
  105EC       H 1048   1.501   1.057   1.870
  105EC       H 1049   1.658   0.992   2.040
  105EC       H 1050   1.749   0.945   1.894
  106EC       O 1051   1.253   3.184   2.219
  106EC       C 1052   1.332   3.225   2.136
  106EC       O 1053   1.445   3.296   2.163
  106EC       C 1054   1.495   3.343   2.041
  106EC       C 1055   1.441   3.244   1.942
  106EC       O 1056   1.318   3.204   2.001
  106EC       H 1057   1.455   3.444   2.024
  106EC       H 1058   1.604   3.348   2.040
  106EC       H 1059   1.506   3.156   1.933
  106EC       H 1060   1.425   3.287   1.843
  107EC       O 1061   0.458   1.665   2.440
  107EC       C 1062   0.358   1.615   2.489
  107EC       O 1063   0.233   1.622   2.434
  107EC       C 1064   0.144   1.575   2.532
  107EC       C 1065   0.230   1.484   2.615
  107EC       O 1066   0.358   1.546   2.606
  107EC       H 1067   0.106   1.661   2.589
  107EC       H 1068   0.060   1.522   2.487
  107EC       H 1069   0.236   1.384   2.573
  107EC       H 1070   0.197   1.478   2.719
  108EC       O 1071   0.293   1.221   1.793
  108EC       C 1072   0.299   1.244   1.912
  108EC       O 1073   0.212   1.195   2.005
  108EC       C 1074   0.237   1.264   2.125
  108EC       C 1075   0.380   1.306   2.110
  108EC       O 1076   0.393   1.326   1.970
  108EC       H 1077   0.169   1.349   2.131
  108EC       H 1078   0.222   1.200   2.212
  108EC       H 1079   0.449   1.228   2.142
  108EC       H 1080   0.403   1.399   2.164
  109EC       O 1081   2.947   2.651   2.371
  109EC       C 1082   2.846   2.588   2.397
  109EC       O 1083   2.767   2.525   2.305
  109EC       C 1084   2.650   2.486   2.372
  109EC       C 1085   2.694   2.473   2.514
  109EC       O 1086   2.796   2.572   2.524
  109EC       H 1087   2.575   2.564   2.358
  109EC       H 1088   2.611   2.392   2.332
  109EC       H 1089   2.738   2.375   2.535
  109EC       H 1090   2.614   2.493   2.586
  110EC       O 1091   3.220   1.376   0.753
  110EC       C 1092   3.226   1.413   0.869
  110EC       O 1093   3.341   1.448   0.934
  110EC       C 1094   3.309   1.461   1.070
  110EC       C 1095   3.163   1.494   1.067
  110EC       O 1096   3.117   1.425   0.951
  110EC       H 1097   3.329   1.365   1.120
  110EC       H 1098   3.368   1.539   1.118
  110EC       H 1099   3.145   1.601   1.053
  110EC       H 1100   3.109   1.460   1.156
  111EC       O 1101   2.971   0.772   0.964
  111EC       C 1102   2.934   0.658   0.987
  111EC       O 1103   3.014   0.549   0.985
  111EC       C 1104   2.930   0.436   0.992
  111EC       C 1105   2.809   0.490   1.061
  111EC       O 1106   2.805   0.625   1.018
  111EC       H 1107   2.909   0.403   0.890
  111EC       H 1108   2.977   0.355   1.048
  111EC       H 1109   2.819   0.487   1.170
  111EC       H 1110   2.717   0.437   1.033
  112EC       O 1111   2.179   1.991   1.438
  112EC       C 1112   2.173   1.991   1.316
  112EC       O 1113   2.254   2.064   1.234
  112EC       C 1114   2.199   2.055   1.104
  112EC       C 1115   2.123   1.926   1.109
  112EC       O 1116   2.082   1.918   1.244
  112EC       H 1117   2.133   2.141   1.089
  112EC       H 1118   2.276   2.055   1.028
  112EC       H 1119   2.187   1.840   1.086
  112EC       H 1120   2.037   1.925   1.042
  113EC       O 1121   2.613   3.473   0.901
  113EC       C 1122   2.719   3.533   0.904
  113EC       O 1123   2.812   3.521   1.002
  113EC       C 1124   2.907   3.624   0.981
  113EC       C 1125   2.895   3.650   0.834
  113EC       O 1126   2.758   3.622   0.808
  113EC       H 1127   2.877   3.710   1.041
  113EC       H 1128   3.007   3.592   1.009
  113EC       H 1129   2.957   3.582   0.775
  113EC       H 1130   2.919   3.754   0.807
  114EC       O 1131   2.396   2.751   0.056
  114EC       C 1132   2.332   2.652   0.087
  114EC       O 1133   2.291   2.555   0.000
  114EC       C 1134   2.201   2.473   0.070
  114EC       C 1135   2.244   2.490   0.213
  114EC       O 1136   2.293   2.624   0.215
  114EC       H 1137   2.099   2.510   0.053
  114EC       H 1138   2.208   2.369   0.037
  114EC       H 1139   2.326   2.422   0.239
  114EC       H 1140   2.163   2.477   0.284
  115EC       O 1141   0.140   2.297   2.102
  115EC       C 1142   0.105   2.372   2.192
  115EC       O 1143   0.127   2.506   2.196
  115EC       C 1144   0.093   2.550   2.325
  115EC       C 1145  -0.006   2.447   2.370
  115EC       O 1146   0.038   2.329   2.304
  115EC       H 1147   0.184   2.550   2.386
  115EC       H 1148   0.051   2.650   2.324
  115EC       H 1149  -0.107   2.471   2.337
  115EC       H 1150  -0.006   2.433   2.479
  116EC       O 1151   2.485  -0.023   0.305
  116EC       C 1152   2.494  -0.001   0.425
  116EC       O 1153   2.472   0.120   0.484
  116EC       C 1154   2.516   0.109   0.617
  116EC       C 1155   2.503  -0.037   0.644
  116EC       O 1156   2.528  -0.096   0.518
  116EC       H 1157   2.620   0.143   0.622
  116EC       H 1158   2.454   0.169   0.684
  116EC       H 1159   2.402  -0.065   0.676
  116EC       H 1160   2.575  -0.073   0.719
  117EC       O 1161   2.647   2.231   1.661
  117EC       C 1162   2.607   2.208   1.773
  117EC       O 1163   2.617   2.087   1.836
  117EC       C 1164   2.538   2.094   1.952
  117EC       C 1165   2.537   2.241   1.982
  117EC       O 1166   2.545   2.300   1.853
  117EC       H 1167   2.438   2.056   1.929
  117EC       H 1168   2.581   2.036   2.034
  117EC       H 1169   2.624   2.272   2.041
  117EC       H 1170   2.446   2.273   2.034
  118EC       O 1171   3.401   0.925   2.747
  118EC       C 1172   3.351   0.987   2.839
  118EC       O 1173   3.366   0.956   2.971
  118EC       C 1174   3.274   1.035   3.042
  118EC       C 1175   3.254   1.153   2.952
  118EC       O 1176   3.271   1.097   2.823
  118EC       H 1177   3.182   0.977   3.056
  118EC       H 1178   3.313   1.064   3.140
  118EC       H 1179   3.331   1.230   2.967
  118EC       H 1180   3.155   1.198   2.962
  119EC       O 1181   2.827   2.932   1.949
  119EC       C 1182   2.836   2.984   1.839
  119EC       O 1183   2.843   3.118   1.817
  119EC       C 1184   2.826   3.138   1.679
  119EC       C 1185   2.873   3.008   1.621
  119EC       O 1186   2.838   2.914   1.722
  119EC       H 1187   2.720   3.156   1.659
  119EC       H 1188   2.884   3.222   1.643
  119EC       H 1189   2.981   3.006   1.607
  119EC       H 1190   2.824   2.983   1.526
  120EC       O 1191   2.066   2.527   1.049
  120EC       C 1192   2.156   2.525   0.967
  120EC       O 1193   2.185   2.420   0.885
  120EC       C 1194   2.309   2.448   0.825
  120EC       C 1195   2.315   2.597   0.829
  120EC       O 1196   2.243   2.629   0.947
  120EC       H 1197   2.388   2.401   0.886
  120EC       H 1198   2.314   2.409   0.724
  120EC       H 1199   2.265   2.643   0.744
  120EC       H 1200   2.418   2.636   0.835
  121EC       O 1201   1.994   0.102   2.879
  121EC       C 1202   1.915   0.120   2.788
  121EC       O 1203   1.793   0.180   2.801
  121EC       C 1204   1.724   0.159   2.681
  121EC       C 1205   1.834   0.141   2.582
  121EC       O 1206   1.937   0.080   2.659
  121EC       H 1207   1.663   0.068   2.692
  121EC       H 1208   1.659   0.243   2.657
  121EC       H 1209   1.870   0.236   2.543
  121EC       H 1210   1.806   0.076   2.498
  122EC       O 1211   2.403   1.322   1.203
  122EC       C 1212   2.364   1.337   1.318
  122EC       O 1213   2.383   1.449   1.392
  122EC       C 1214   2.346   1.417   1.524
  122EC       C 1215   2.248   1.305   1.505
  122EC       O 1216   2.296   1.241   1.388
  122EC       H 1217   2.435   1.385   1.579
  122EC       H 1218   2.301   1.503   1.575
  122EC       H 1219   2.147   1.342   1.487
  122EC       H 1220   2.246   1.236   1.590
  123EC       O 1221   1.761   0.152   1.813
  123EC       C 1222   1.712   0.160   1.702
  123EC       O 1223   1.597   0.228   1.673
  123EC       C 1224   1.562   0.193   1.541
  123EC       C 1225   1.693   0.154   1.480
  123EC       O 1226   1.765   0.101   1.591
  123EC       H 1227   1.492   0.109   1.546
  123EC       H 1228   1.515   0.276   1.489
  123EC       H 1229   1.747   0.241   1.441
  123EC       H 1230   1.683   0.080   1.401
  124EC       O 1231   2.153   0.002   1.256
  124EC       C 1232   2.090   0.043   1.161
  124EC       O 1233   1.993  -0.027   1.095
  124EC       C 1234   1.963   0.044   0.978
  124EC       C 1235   2.000   0.184   1.014
  124EC       O 1236   2.108   0.166   1.104
  124EC       H 1237   2.024   0.004   0.896
  124EC       H 1238   1.857   0.035   0.951
  124EC       H 1239   1.919   0.237   1.065
  124EC       H 1240   2.031   0.244   0.927
  125EC       O 1241   2.162  -0.078   1.785
  125EC       C 1242   2.233   0.019   1.803
  125EC       O 1243   2.190   0.149   1.798
  125EC       C 1244   2.305   0.230   1.799
  125EC       C 1245   2.405   0.144   1.869
  125EC       O 1246   2.367   0.013   1.831
  125EC       H 1247   2.333   0.252   1.696
  125EC       H 1248   2.287   0.324   1.852
  125EC       H 1249   2.399   0.153   1.978
  125EC       H 1250   2.508   0.165   1.837
  126EC       O 1251   0.374   3.049   0.649
  126EC       C 1252   0.332   2.984   0.555
  126EC       O 1253   0.200   2.956   0.533
  126EC       C 1254   0.196   2.859   0.431
  126EC       C 1255   0.324   2.882   0.357
  126EC       O 1256   0.411   2.927   0.459
  126EC       H 1257   0.192   2.760   0.478
  126EC       H 1258   0.108   2.871   0.367
  126EC       H 1259   0.314   2.960   0.282
  126EC       H 1260   0.363   2.791   0.310
  127EC       O 1261   3.482   3.927   1.370
  127EC       C 1262   3.490   3.819   1.315
  127EC       O 1263   3.465   3.797   1.182
  127EC       C 1264   3.461   3.658   1.164
  127EC       C 1265   3.546   3.607   1.276
  127EC       O 1266   3.525   3.703   1.378
  127EC       H 1267   3.357   3.625   1.173
  127EC       H 1268   3.499   3.629   1.066
  127EC       H 1269   3.652   3.606   1.249
  127EC       H 1270   3.517   3.507   1.310
  128EC       O 1271   3.598   1.551   1.790
  128EC       C 1272   3.660   1.516   1.691
  128EC       O 1273   3.788   1.551   1.663
  128EC       C 1274   3.813   1.512   1.530
  128EC       C 1275   3.717   1.399   1.510
  128EC       O 1276   3.607   1.436   1.593
  128EC       H 1277   3.792   1.597   1.464
  128EC       H 1278   3.917   1.480   1.516
  128EC       H 1279   3.757   1.304   1.545
  128EC       H 1280   3.684   1.388   1.406
  129EC       O 1281   3.335   0.720   3.214
  129EC       C 1282   3.244   0.644   3.242
  129EC       O 1283   3.127   0.682   3.301
  129EC       C 1284   3.060   0.564   3.338
  129EC       C 1285   3.114   0.464   3.241
  129EC       O 1286   3.246   0.510   3.218
  129EC       H 1287   3.086   0.540   3.441
  129EC       H 1288   2.952   0.575   3.330
  129EC       H 1289   3.059   0.464   3.146
  129EC       H 1290   3.115   0.362   3.281
  130EC       O 1291   3.164   1.618   1.690
  130EC       C 1292   3.162   1.637   1.570
  130EC       O 1293   3.157   1.538   1.476
  130EC       C 1294   3.183   1.598   1.351
  130EC       C 1295   3.139   1.739   1.373
  130EC       O 1296   3.167   1.760   1.511
  130EC       H 1297   3.290   1.590   1.330
  130EC       H 1298   3.127   1.549   1.271
  130EC       H 1299   3.032   1.752   1.357
  130EC       H 1300   3.194   1.811   1.311
  131EC       O 1301   2.728   0.527   1.831
  131EC       C 1302   2.745   0.507   1.712
  131EC       O 1303   2.729   0.386   1.651
  131EC       C 1304   2.782   0.399   1.521
  131EC       C 1305   2.768   0.545   1.494
  131EC       O 1306   2.784   0.603   1.623
  131EC       H 1307   2.886   0.366   1.523
  131EC       H 1308   2.726   0.338   1.450
  131EC       H 1309   2.669   0.571   1.456
  131EC       H 1310   2.844   0.583   1.425
  132EC       O 1311   1.723   3.073   3.704
  132EC       C 1312   1.794   3.079   3.605
  132EC       O 1313   1.881   2.982   3.566
  132EC       C 1314   1.960   3.037   3.464
  132EC       C 1315   1.873   3.144   3.408
  132EC       O 1316   1.798   3.187   3.521
  132EC       H 1317   2.052   3.077   3.509
  132EC       H 1318   1.987   2.962   3.389
  132EC       H 1319   1.804   3.106   3.332
  132EC       H 1320   1.930   3.228   3.365
  133EC       O 1321   0.391   2.790   2.856
  133EC       C 1322   0.381   2.789   2.734
  133EC       O 1323   0.283   2.854   2.664
  133EC       C 1324   0.291   2.808   2.531
  133EC       C 1325   0.435   2.767   2.519
  133EC       O 1326   0.466   2.722   2.651
  133EC       H 1327   0.223   2.724   2.519
  133EC       H 1328   0.265   2.887   2.460
  133EC       H 1329   0.500   2.851   2.494
  133EC       H 1330   0.450   2.686   2.447
  134EC       O 1331   1.837   2.499   1.431
  134EC       C 1332   1.771   2.598   1.458
  134EC       O 1333   1.824   2.716   1.502
  134EC       C 1334   1.716   2.795   1.546
  134EC       C 1335   1.601   2.741   1.466
  134EC       O 1336   1.635   2.604   1.450
  134EC       H 1337   1.703   2.779   1.653
  134EC       H 1338   1.733   2.901   1.527
  134EC       H 1339   1.594   2.788   1.368
  134EC       H 1340   1.505   2.751   1.518
  135EC       O 1341   0.711   0.217   3.409
  135EC       C 1342   0.699   0.230   3.288
  135EC       O 1343   0.735   0.340   3.217
  135EC       C 1344   0.683   0.325   3.088
  135EC       C 1345   0.673   0.176   3.074
  135EC       O 1346   0.647   0.133   3.206
  135EC       H 1347   0.585   0.374   3.084
  135EC       H 1348   0.748   0.369   3.013
  135EC       H 1349   0.767   0.132   3.040
  135EC       H 1350   0.593   0.145   3.006
  136EC       O 1351   0.835   2.837   1.850
  136EC       C 1352   0.836   2.827   1.972
  136EC       O 1353   0.884   2.921   2.058
  136EC       C 1354   0.889   2.861   2.185
  136EC       C 1355   0.784   2.755   2.176
  136EC       O 1356   0.788   2.717   2.039
  136EC       H 1357   0.990   2.819   2.200
  136EC       H 1358   0.869   2.933   2.264
  136EC       H 1359   0.685   2.793   2.200
  136EC       H 1360   0.805   2.668   2.241
  137EC       O 1361  -0.039   2.874   1.850
  137EC       C 1362   0.064   2.931   1.817
  137EC       O 1363   0.070   3.047   1.746
  137EC       C 1364   0.204   3.064   1.707
  137EC       C 1365   0.279   2.989   1.812
  137EC       O 1366   0.189   2.884   1.845
  137EC       H 1367   0.217   3.021   1.607
  137EC       H 1368   0.231   3.170   1.704
  137EC       H 1369   0.298   3.049   1.901
  137EC       H 1370   0.374   2.948   1.775
  138EC       O 1371   2.429   1.238   2.850
  138EC       C 1372   2.396   1.212   2.735
  138EC       O 1373   2.287   1.137   2.701
  138EC       C 1374   2.297   1.110   2.564
  138EC       C 1375   2.380   1.225   2.514
  138EC       O 1376   2.464   1.254   2.624
  138EC       H 1377   2.348   1.014   2.551
  138EC       H 1378   2.199   1.106   2.516
  138EC       H 1379   2.319   1.313   2.491
  138EC       H 1380   2.440   1.199   2.426
  139EC       O 1381   2.819   1.018   0.788
  139EC       C 1382   2.793   1.041   0.671
  139EC       O 1383   2.879   1.018   0.567
  139EC       C 1384   2.822   1.079   0.453
  139EC       C 1385   2.676   1.080   0.486
  139EC       O 1386   2.675   1.093   0.627
  139EC       H 1387   2.863   1.180   0.444
  139EC       H 1388   2.844   1.023   0.362
  139EC       H 1389   2.627   0.986   0.458
  139EC       H 1390   2.622   1.164   0.439
  140EC       O 1391   1.741   0.428   0.852
  140EC       C 1392   1.644   0.496   0.823
  140EC       O 1393   1.631   0.628   0.851
  140EC       C 1394   1.497   0.663   0.825
  140EC       C 1395   1.456   0.561   0.723
  140EC       O 1396   1.533   0.447   0.759
  140EC       H 1397   1.440   0.654   0.918
  140EC       H 1398   1.489   0.765   0.787
  140EC       H 1399   1.483   0.591   0.621
  140EC       H 1400   1.349   0.538   0.726
  141EC       O 1401   2.876   0.874   3.236
  141EC       C 1402   2.856   0.772   3.173
  141EC       O 1403   2.915   0.740   3.055
  141EC       C 1404   2.848   0.628   3.003
  141EC       C 1405   2.793   0.563   3.126
  141EC       O 1406   2.768   0.674   3.212
  141EC       H 1407   2.769   0.663   2.936
  141EC       H 1408   2.915   0.562   2.949
  141EC       H 1409   2.865   0.497   3.174
  141EC       H 1410   2.700   0.508   3.107
  142EC       O 1411   3.161   3.395   1.044
  142EC       C 1412   3.096   3.300   1.004
  142EC       O 1413   3.148   3.189   0.944
  142EC       C 1414   3.040   3.117   0.891
  142EC       C 1415   2.926   3.159   0.978
  142EC       O 1416   2.959   3.293   1.012
  142EC       H 1417   3.027   3.146   0.787
  142EC       H 1418   3.058   3.009   0.896
  142EC       H 1419   2.919   3.100   1.069
  142EC       H 1420   2.829   3.156   0.926
  143EC       O 1421   0.144   3.503   1.438
  143EC       C 1422   0.112   3.478   1.552
  143EC       O 1423  -0.002   3.522   1.613
  143EC       C 1424   0.010   3.492   1.750
  143EC       C 1425   0.104   3.375   1.750
  143EC       O 1426   0.187   3.401   1.637
  143EC       H 1427   0.053   3.579   1.801
  143EC       H 1428  -0.086   3.468   1.794
  143EC       H 1429   0.052   3.281   1.735
  143EC       H 1430   0.164   3.369   1.841
  144EC       O 1431   0.234   1.488   1.086
  144EC       C 1432   0.260   1.595   1.035
  144EC       O 1433   0.314   1.611   0.911
  144EC       C 1434   0.352   1.746   0.900
  144EC       C 1435   0.260   1.815   0.996
  144EC       O 1436   0.240   1.716   1.097
  144EC       H 1437   0.457   1.755   0.930
  144EC       H 1438   0.340   1.783   0.798
  144EC       H 1439   0.164   1.839   0.951
  144EC       H 1440   0.303   1.906   1.040
  145EC       O 1441   3.136   2.990   2.234
  145EC       C 1442   3.153   2.890   2.165
  145EC       O 1443   3.185   2.891   2.033
  145EC       C 1444   3.171   2.759   1.986
  145EC       C 1445   3.192   2.678   2.110
  145EC       O 1446   3.141   2.763   2.213
  145EC       H 1447   3.070   2.748   1.946
  145EC       H 1448   3.244   2.736   1.909
  145EC       H 1449   3.298   2.659   2.130
  145EC       H 1450   3.138   2.583   2.109
  146EC       O 1451   0.897   3.128   2.198
  146EC       C 1452   0.894   3.138   2.076
  146EC       O 1453   0.788   3.184   2.004
  146EC       C 1454   0.815   3.156   1.869
  146EC       C 1455   0.964   3.151   1.865
  146EC       O 1456   0.998   3.102   1.994
  146EC       H 1457   0.769   3.060   1.844
  146EC       H 1458   0.774   3.233   1.804
  146EC       H 1459   1.008   3.251   1.853
  146EC       H 1460   1.003   3.085   1.787
  147EC       O 1461   0.121   2.333   1.025
  147EC       C 1462   0.198   2.264   1.090
  147EC       O 1463   0.174   2.135   1.127
  147EC       C 1464   0.273   2.100   1.220
  147EC       C 1465   0.386   2.192   1.185
  147EC       O 1466   0.319   2.308   1.137
  147EC       H 1467   0.234   2.119   1.321
  147EC       H 1468   0.302   1.995   1.211
  147EC       H 1469   0.449   2.152   1.105
  147EC       H 1470   0.449   2.217   1.271
  148EC       O 1471   3.255   3.371   3.295
  148EC       C 1472   3.185   3.459   3.248
  148EC       O 1473   3.227   3.554   3.160
  148EC       C 1474   3.124   3.650   3.151
  148EC       C 1475   3.002   3.571   3.188
  148EC       O 1476   3.053   3.476   3.280
  148EC       H 1477   3.145   3.730   3.223
  148EC       H 1478   3.118   3.692   3.051
  148EC       H 1479   2.960   3.519   3.102
  148EC       H 1480   2.924   3.633   3.234
  149EC       O 1481   0.917   3.393   1.695
  149EC       C 1482   0.825   3.378   1.617
  149EC       O 1483   0.693   3.381   1.651
  149EC       C 1484   0.621   3.335   1.540
  149EC       C 1485   0.712   3.369   1.426
  149EC       O 1486   0.841   3.355   1.483
  149EC       H 1487   0.605   3.228   1.550
  149EC       H 1488   0.524   3.385   1.531
  149EC       H 1489   0.699   3.471   1.391
  149EC       H 1490   0.700   3.300   1.340
  150EC       O 1491   0.588   1.476   0.674
  150EC       C 1492   0.624   1.524   0.567
  150EC       O 1493   0.651   1.452   0.455
  150EC       C 1494   0.712   1.539   0.364
  150EC       C 1495   0.661   1.673   0.406
  150EC       O 1496   0.644   1.658   0.546
  150EC       H 1497   0.821   1.531   0.376
  150EC       H 1498   0.685   1.515   0.261
  150EC       H 1499   0.564   1.696   0.361
  150EC       H 1500   0.730   1.755   0.385
  151EC       O 1501   1.454   0.200   2.807
  151EC       C 1502   1.396   0.297   2.853
  151EC       O 1503   1.312   0.294   2.961
  151EC       C 1504   1.248   0.419   2.966
  151EC       C 1505   1.345   0.509   2.897
  151EC       O 1506   1.406   0.423   2.802
  151EC       H 1507   1.153   0.411   2.912
  151EC       H 1508   1.228   0.450   3.069
  151EC       H 1509   1.422   0.547   2.965
  151EC       H 1510   1.297   0.594   2.847
  152EC       O 1511   2.592   1.620   0.506
  152EC       C 1512   2.505   1.563   0.442
  152EC       O 1513   2.476   1.430   0.452
  152EC       C 1514   2.389   1.399   0.346
  152EC       C 1515   2.324   1.531   0.317
  152EC       O 1516   2.426   1.624   0.350
  152EC       H 1517   2.449   1.363   0.262
  152EC       H 1518   2.317   1.322   0.374
  152EC       H 1519   2.237   1.548   0.381
  152EC       H 1520   2.294   1.541   0.212
  153EC       O 1521   1.019   0.635   2.079
  153EC       C 1522   1.041   0.620   1.960
  153EC       O 1523   1.151   0.667   1.895
  153EC       C 1524   1.127   0.650   1.757
  153EC       C 1525   1.030   0.537   1.754
  153EC       O 1526   0.957   0.554   1.875
  153EC       H 1527   1.084   0.743   1.719
  153EC       H 1528   1.219   0.628   1.703
  153EC       H 1529   1.079   0.440   1.756
  153EC       H 1530   0.962   0.541   1.668
  154EC       O 1531   1.388   1.937   1.790
  154EC       C 1532   1.368   2.056   1.809
  154EC       O 1533   1.251   2.109   1.856
  154EC       C 1534   1.261   2.249   1.840
  154EC       C 1535   1.408   2.273   1.843
  154EC       O 1536   1.461   2.154   1.786
  154EC       H 1537   1.216   2.276   1.743
  154EC       H 1538   1.208   2.301   1.920
  154EC       H 1539   1.446   2.283   1.945
  154EC       H 1540   1.439   2.360   1.785
  155EC       O 1541   2.546   1.857   3.404
  155EC       C 1542   2.558   1.848   3.283
  155EC       O 1543   2.456   1.852   3.194
  155EC       C 1544   2.509   1.815   3.069
  155EC       C 1545   2.653   1.852   3.082
  155EC       O 1546   2.679   1.833   3.220
  155EC       H 1547   2.495   1.707   3.056
  155EC       H 1548   2.460   1.868   2.987
  155EC       H 1549   2.671   1.957   3.057
  155EC       H 1550   2.719   1.789   3.021
  156EC       O 1551   2.961   2.662   3.614
  156EC       C 1552   2.971   2.661   3.492
  156EC       O 1553   2.935   2.556   3.412
  156EC       C 1554   2.984   2.584   3.284
  156EC       C 1555   2.992   2.734   3.283
  156EC       O 1556   3.021   2.765   3.418
  156EC       H 1557   3.083   2.537   3.274
  156EC       H 1558   2.918   2.546   3.206
  156EC       H 1559   2.897   2.780   3.255
  156EC       H 1560   3.071   2.772   3.217
  157EC       O 1561   0.529   3.652   0.242
  157EC       C 1562   0.502   3.668   0.360
  157EC       O 1563   0.416   3.762   0.408
  157EC       C 1564   0.431   3.764   0.548
  157EC       C 1565   0.480   3.626   0.577
  157EC       O 1566   0.555   3.593   0.461
  157EC       H 1567   0.505   3.840   0.574
  157EC       H 1568   0.337   3.786   0.598
  157EC       H 1569   0.398   3.554   0.588
  157EC       H 1570   0.543   3.621   0.667
  158EC       O 1571   0.216   0.517   1.060
  158EC       C 1572   0.213   0.637   1.038
  158EC       O 1573   0.133   0.726   1.103
  158EC       C 1574   0.142   0.848   1.033
  158EC       C 1575   0.276   0.839   0.968
  158EC       O 1576   0.291   0.699   0.944
  158EC       H 1577   0.061   0.852   0.960
  158EC       H 1578   0.134   0.933   1.100
  158EC       H 1579   0.357   0.872   1.034
  158EC       H 1580   0.282   0.895   0.874
  159EC       O 1581   0.533   0.858   2.028
  159EC       C 1582   0.576   0.931   1.940
  159EC       O 1583   0.591   0.896   1.809
  159EC       C 1584   0.664   0.999   1.747
  159EC       C 1585   0.634   1.118   1.833
  159EC       O 1586   0.615   1.061   1.961
  159EC       H 1587   0.770   0.972   1.750
  159EC       H 1588   0.634   1.013   1.644
  159EC       H 1589   0.541   1.167   1.802
  159EC       H 1590   0.715   1.191   1.834
  160EC       O 1591   2.472   3.915   2.725
  160EC       C 1592   2.438   3.860   2.622
  160EC       O 1593   2.395   3.731   2.614
  160EC       C 1594   2.389   3.698   2.477
  160EC       C 1595   2.369   3.832   2.412
  160EC       O 1596   2.439   3.920   2.499
  160EC       H 1597   2.484   3.652   2.449
  160EC       H 1598   2.307   3.629   2.456
  160EC       H 1599   2.264   3.861   2.409
  160EC       H 1600   2.411   3.836   2.311
  161EC       O 1601   0.108   1.627   0.446
  161EC       C 1602   0.181   1.644   0.349
  161EC       O 1603   0.141   1.694   0.229
  161EC       C 1604   0.247   1.674   0.139
  161EC       C 1605   0.366   1.670   0.229
  161EC       O 1606   0.314   1.613   0.349
  161EC       H 1607   0.231   1.579   0.087
  161EC       H 1608   0.253   1.755   0.066
  161EC       H 1609   0.405   1.770   0.251
  161EC       H 1610   0.448   1.608   0.190
  162EC       O 1611   0.923   1.028   3.506
  162EC       C 1612   0.992   1.044   3.606
  162EC       O 1613   1.062   0.945   3.669
  162EC       C 1614   1.106   0.998   3.791
  162EC       C 1615   1.112   1.145   3.763
  162EC       O 1616   1.007   1.164   3.669
  162EC       H 1617   1.033   0.974   3.869
  162EC       H 1618   1.204   0.958   3.820
  162EC       H 1619   1.207   1.175   3.717
  162EC       H 1620   1.095   1.206   3.853
  163EC       O 1621   0.992   2.833   0.923
  163EC       C 1622   0.954   2.946   0.898
  163EC       O 1623   0.914   2.990   0.775
  163EC       C 1624   0.903   3.130   0.784
  163EC       C 1625   0.876   3.152   0.929
  163EC       O 1626   0.947   3.046   0.991
  163EC       H 1627   0.997   3.174   0.751
  163EC       H 1628   0.822   3.167   0.721
  163EC       H 1629   0.770   3.143   0.954
  163EC       H 1630   0.913   3.249   0.965
  164EC       O 1631   0.844   2.629   0.676
  164EC       C 1632   0.873   2.513   0.701
  164EC       O 1633   0.830   2.405   0.631
  164EC       C 1634   0.866   2.291   0.706
  164EC       C 1635   0.983   2.339   0.785
  164EC       O 1636   0.954   2.476   0.806
  164EC       H 1637   0.781   2.264   0.769
  164EC       H 1638   0.891   2.207   0.641
  164EC       H 1639   1.077   2.330   0.730
  164EC       H 1640   0.993   2.287   0.881
  165EC       O 1641   1.638   2.839   0.526
  165EC       C 1642   1.641   2.841   0.648
  165EC       O 1643   1.560   2.767   0.729
  165EC       C 1644   1.577   2.816   0.860
  165EC       C 1645   1.714   2.875   0.856
  165EC       O 1646   1.726   2.920   0.721
  165EC       H 1647   1.500   2.891   0.879
  165EC       H 1648   1.568   2.736   0.934
  165EC       H 1649   1.792   2.800   0.875
  165EC       H 1650   1.727   2.958   0.925
  166EC       O 1651   2.499   2.999   1.794
  166EC       C 1652   2.516   2.977   1.913
  166EC       O 1653   2.440   3.029   2.013
  166EC       C 1654   2.506   3.000   2.134
  166EC       C 1655   2.586   2.878   2.100
  166EC       O 1656   2.616   2.897   1.962
  166EC       H 1657   2.570   3.086   2.160
  166EC       H 1658   2.436   2.982   2.215
  166EC       H 1659   2.528   2.787   2.111
  166EC       H 1660   2.678   2.870   2.158
  167EC       O 1661   2.012   0.335   2.348
  167EC       C 1662   1.953   0.377   2.250
  167EC       O 1663   1.880   0.301   2.164
  167EC       C 1664   1.851   0.382   2.053
  167EC       C 1665   1.855   0.520   2.111
  167EC       O 1666   1.953   0.509   2.213
  167EC       H 1667   1.928   0.367   1.977
  167EC       H 1668   1.753   0.358   2.011
  167EC       H 1669   1.760   0.549   2.156
  167EC       H 1670   1.884   0.596   2.037
  168EC       O 1671   1.217   0.539   1.109
  168EC       C 1672   1.120   0.469   1.086
  168EC       O 1673   1.001   0.477   1.152
  168EC       C 1674   0.925   0.364   1.113
  168EC       C 1675   0.982   0.331   0.979
  168EC       O 1676   1.117   0.371   0.990
  168EC       H 1677   0.943   0.284   1.187
  168EC       H 1678   0.819   0.387   1.109
  168EC       H 1679   0.934   0.389   0.899
  168EC       H 1680   0.975   0.224   0.955
  169EC       O 1681   0.566   3.574   3.050
  169EC       C 1682   0.491   3.637   3.124
  169EC       O 1683   0.357   3.618   3.132
  169EC       C 1684   0.305   3.725   3.208
  169EC       C 1685   0.422   3.765   3.292
  169EC       O 1686   0.533   3.736   3.208
  169EC       H 1687   0.274   3.804   3.139
  169EC       H 1688   0.220   3.693   3.268
  169EC       H 1689   0.430   3.705   3.383
  169EC       H 1690   0.421   3.871   3.319
  170EC       O 1691   3.363   2.341   0.702
  170EC       C 1692   3.437   2.286   0.621
  170EC       O 1693   3.546   2.211   0.654
  170EC       C 1694   3.617   2.188   0.535
  170EC       C 1695   3.511   2.199   0.430
  170EC       O 1696   3.421   2.294   0.486
  170EC       H 1697   3.694   2.266   0.525
  170EC       H 1698   3.665   2.090   0.535
  170EC       H 1699   3.458   2.105   0.416
  170EC       H 1700   3.549   2.234   0.334
  171DMC      C 1701   1.647   2.575   0.635
  171DMC      O 1702   1.651   2.435   0.602
  171DMC      C 1703   1.596   2.355   0.695
  171DMC      O 1704   1.545   2.392   0.800
  171DMC      O 1705   1.606   2.226   0.652
  171DMC      C 1706   1.551   2.131   0.742
  171DMC      H 1707   1.702   2.594   0.727
  171DMC      H 1708   1.693   2.631   0.554
  171DMC      H 1709   1.543   2.608   0.645
  171DMC      H 1710   1.565   2.031   0.699
  171DMC      H 1711   1.604   2.134   0.839
  171DMC      H 1712   1.444   2.149   0.756
  172DMC      C 1713   1.401   2.188   1.097
  172DMC      O 1714   1.329   2.175   1.221
  172DMC      C 1715   1.410   2.164   1.329
  172DMC      O 1716   1.532   2.166   1.328
  172DMC      O 1717   1.331   2.152   1.439
  172DMC      C 1718   1.404   2.140   1.561
  172DMC      H 1719   1.464   2.101   1.079
  172DMC      H 1720   1.328   2.196   1.016
  172DMC      H 1721   1.461   2.279   1.098
  172DMC      H 1722   1.331   2.130   1.643
  172DMC      H 1723   1.466   2.050   1.560
  172DMC      H 1724   1.464   2.229   1.578
  173DMC      C 1725  -0.024   0.654   3.617
  173DMC      O 1726   0.085   0.566   3.643
  173DMC      C 1727   0.111   0.547   3.775
  173DMC      O 1728   0.050   0.599   3.867
  173DMC      O 1729   0.216   0.462   3.786
  173DMC      C 1730   0.253   0.435   3.920
  173DMC      H 1731  -0.004   0.754   3.657
  173DMC      H 1732  -0.037   0.662   3.509
  173DMC      H 1733  -0.117   0.615   3.660
  173DMC      H 1734   0.339   0.366   3.919
  173DMC      H 1735   0.285   0.527   3.971
  173DMC      H 1736   0.171   0.387   3.974
  174DMC      C 1737   3.000   1.864   1.134
  174DMC      O 1738   2.985   2.003   1.104
  174DMC      C 1739   2.861   2.035   1.059
  174DMC      O 1740   2.768   1.958   1.042
  174DMC      O 1741   2.859   2.169   1.034
  174DMC      C 1742   2.734   2.216   0.985
  174DMC      H 1743   2.985   1.803   1.045
  174DMC      H 1744   3.102   1.848   1.170
  174DMC      H 1745   2.931   1.834   1.213
  174DMC      H 1746   2.743   2.324   0.967
  174DMC      H 1747   2.710   2.168   0.889
  174DMC      H 1748   2.655   2.199   1.058
  175DMC      C 1749   0.836   1.118   0.221
  175DMC      O 1750   0.738   1.198   0.154
  175DMC      C 1751   0.639   1.242   0.236
  175DMC      O 1752   0.629   1.218   0.355
  175DMC      O 1753   0.553   1.317   0.162
  175DMC      C 1754   0.444   1.369   0.236
  175DMC      H 1755   0.790   1.027   0.263
  175DMC      H 1756   0.911   1.087   0.147
  175DMC      H 1757   0.886   1.175   0.299
  175DMC      H 1758   0.380   1.427   0.167
  175DMC      H 1759   0.383   1.288   0.278
  175DMC      H 1760   0.479   1.436   0.315
  176DMC      C 1761   3.236   0.134   3.770
  176DMC      O 1762   3.279   0.028   3.684
  176DMC      C 1763   3.380   0.062   3.601
  176DMC      O 1764   3.433   0.172   3.595
  176DMC      O 1765   3.413  -0.046   3.527
  176DMC      C 1766   3.518  -0.023   3.434
  176DMC      H 1767   3.198   0.218   3.711
  176DMC      H 1768   3.155   0.097   3.833
  176DMC      H 1769   3.317   0.167   3.835
  176DMC      H 1770   3.536  -0.116   3.379
  176DMC      H 1771   3.490   0.055   3.362
  176DMC      H 1772   3.610   0.004   3.487
  177DMC      C 1773   0.911   1.584   3.700
  177DMC      O 1774   0.897   1.571   3.558
  177DMC      C 1775   0.894   1.689   3.492
  177DMC      O 1776   0.902   1.800   3.543
  177DMC      O 1777   0.881   1.663   3.359
  177DMC      C 1778   0.877   1.780   3.278
  177DMC      H 1779   0.826   1.639   3.742
  177DMC      H 1780   0.912   1.484   3.744
  177DMC      H 1781   1.005   1.634   3.725
  177DMC      H 1782   0.866   1.748   3.174
  177DMC      H 1783   0.790   1.842   3.305
  177DMC      H 1784   0.969   1.837   3.288
  178DMC      C 1785   0.947   3.575   3.213
  178DMC      O 1786   0.874   3.640   3.108
  178DMC      C 1787   0.871   3.569   2.993
  178DMC      O 1788   0.924   3.460   2.974
  178DMC      O 1789   0.799   3.639   2.902
  178DMC      C 1790   0.788   3.576   2.775
  178DMC      H 1791   1.052   3.561   3.185
  178DMC      H 1792   0.944   3.640   3.302
  178DMC      H 1793   0.901   3.480   3.239
  178DMC      H 1794   0.729   3.641   2.709
  178DMC      H 1795   0.887   3.562   2.730
  178DMC      H 1796   0.737   3.480   2.785
  179DMC      C 1797   3.312   1.890   1.721
  179DMC      O 1798   3.322   2.004   1.806
  179DMC      C 1799   3.278   1.983   1.932
  179DMC      O 1800   3.232   1.878   1.975
  179DMC      O 1801   3.294   2.098   2.002
  179DMC      C 1802   3.251   2.089   2.137
  179DMC      H 1803   3.207   1.858   1.710
  179DMC      H 1804   3.350   1.917   1.622
  179DMC      H 1805   3.372   1.807   1.759
  179DMC      H 1806   3.267   2.187   2.185
  179DMC      H 1807   3.143   2.067   2.142
  179DMC      H 1808   3.309   2.015   2.191
  180DMC      C 1809   1.844   3.534   3.451
  180DMC      O 1810   1.942   3.596   3.367
  180DMC      C 1811   1.931   3.562   3.237
  180DMC      O 1812   1.849   3.485   3.189
  180DMC      O 1813   2.029   3.626   3.168
  180DMC      C 1814   2.029   3.598   3.029
  180DMC      H 1815   1.854   3.425   3.449
  180DMC      H 1816   1.860   3.568   3.554
  180DMC      H 1817   1.743   3.564   3.421
  180DMC      H 1818   2.111   3.655   2.983
  180DMC      H 1819   2.047   3.491   3.011
  180DMC      H 1820   1.935   3.630   2.983
  181DMC      C 1821   2.160   1.165   0.879
  181DMC      O 1822   2.258   1.262   0.842
  181DMC      C 1823   2.312   1.327   0.948
  181DMC      O 1824   2.283   1.310   1.065
  181DMC      O 1825   2.404   1.416   0.901
  181DMC      C 1826   2.468   1.491   1.002
  181DMC      H 1827   2.076   1.212   0.930
  181DMC      H 1828   2.123   1.117   0.787
  181DMC      H 1829   2.204   1.087   0.942
  181DMC      H 1830   2.539   1.560   0.954
  181DMC      H 1831   2.395   1.552   1.057
  181DMC      H 1832   2.524   1.426   1.070
  182DMC      C 1833   2.452   1.729   2.140
  182DMC      O 1834   2.313   1.759   2.118
  182DMC      C 1835   2.261   1.844   2.209
  182DMC      O 1836   2.320   1.893   2.304
  182DMC      O 1837   2.130   1.865   2.177
  182DMC      C 1838   2.063   1.953   2.265
  182DMC      H 1839   2.465   1.680   2.237
  182DMC      H 1840   2.485   1.660   2.062
  182DMC      H 1841   2.512   1.819   2.135
  182DMC      H 1842   1.959   1.963   2.231
  182DMC      H 1843   2.061   1.912   2.367
  182DMC      H 1844   2.109   2.052   2.264
  183DMC      C 1845   3.007   3.644   1.355
  183DMC      O 1846   2.978   3.712   1.478
  183DMC      C 1847   3.045   3.662   1.585
  183DMC      O 1848   3.123   3.568   1.583
  183DMC      O 1849   3.010   3.734   1.694
  183DMC      C 1850   3.073   3.692   1.814
  183DMC      H 1851   2.978   3.538   1.361
  183DMC      H 1852   2.948   3.691   1.276
  183DMC      H 1853   3.112   3.653   1.330
  183DMC      H 1854   3.038   3.755   1.896
  183DMC      H 1855   3.046   3.588   1.837
  183DMC      H 1856   3.182   3.702   1.806
  184DMC      C 1857   1.531   2.413   3.404
  184DMC      O 1858   1.513   2.272   3.423
  184DMC      C 1859   1.515   2.233   3.552
  184DMC      O 1860   1.531   2.307   3.649
  184DMC      O 1861   1.496   2.099   3.557
  184DMC      C 1862   1.496   2.045   3.688
  184DMC      H 1863   1.628   2.445   3.443
  184DMC      H 1864   1.528   2.434   3.297
  184DMC      H 1865   1.451   2.469   3.452
  184DMC      H 1866   1.482   1.937   3.681
  184DMC      H 1867   1.593   2.063   3.737
  184DMC      H 1868   1.415   2.088   3.747
  185DMC      C 1869   2.223   2.871   2.208
  185DMC      O 1870   2.246   2.953   2.324
  185DMC      C 1871   2.144   3.038   2.350
  185DMC      O 1872   2.041   3.050   2.286
  185DMC      O 1873   2.177   3.110   2.461
  185DMC      C 1874   2.078   3.204   2.500
  185DMC      H 1875   2.212   2.932   2.118
  185DMC      H 1876   2.310   2.805   2.195
  185DMC      H 1877   2.135   2.808   2.223
  185DMC      H 1878   2.115   3.257   2.589
  185DMC      H 1879   2.063   3.279   2.420
  185DMC      H 1880   1.985   3.154   2.525
  186DMC      C 1881   2.274   3.098   1.645
  186DMC      O 1882   2.353   3.102   1.525
  186DMC      C 1883   2.285   3.067   1.413
  186DMC      O 1884   2.167   3.034   1.409
  186DMC      O 1885   2.369   3.075   1.307
  186DMC      C 1886   2.310   3.040   1.183
  186DMC      H 1887   2.238   2.997   1.663
  186DMC      H 1888   2.338   3.128   1.728
  186DMC      H 1889   2.191   3.168   1.638
  186DMC      H 1890   2.386   3.049   1.105
  186DMC      H 1891   2.275   2.936   1.185
  186DMC      H 1892   2.228   3.108   1.160
  187DMC      C 1893   1.955   1.109   3.437
  187DMC      O 1894   1.905   1.159   3.562
  187DMC      C 1895   1.770   1.169   3.566
  187DMC      O 1896   1.693   1.140   3.476
  187DMC      O 1897   1.735   1.217   3.688
  187DMC      C 1898   1.595   1.232   3.706
  187DMC      H 1899   1.928   1.175   3.355
  187DMC      H 1900   2.065   1.104   3.444
  187DMC      H 1901   1.918   1.008   3.419
  187DMC      H 1902   1.577   1.272   3.807
  187DMC      H 1903   1.555   1.305   3.633
  187DMC      H 1904   1.544   1.136   3.697
  188DMC      C 1905   2.602   3.467   0.000
  188DMC      O 1906   2.587   3.366   0.100
  188DMC      C 1907   2.528   3.409   0.214
  188DMC      O 1908   2.489   3.523   0.235
  188DMC      O 1909   2.520   3.304   0.300
  188DMC      C 1910   2.459   3.337   0.424
  188DMC      H 1911   2.665   3.549   0.037
  188DMC      H 1912   2.650   3.423  -0.087
  188DMC      H 1913   2.504   3.505  -0.031
  188DMC      H 1914   2.458   3.246   0.486
  188DMC      H 1915   2.517   3.413   0.477
  188DMC      H 1916   2.356   3.370   0.409
  189DMC      C 1917   1.777   0.509   0.072
  189DMC      O 1918   1.871   0.587   0.146
  189DMC      C 1919   2.000   0.550   0.128
  189DMC      O 1920   2.039   0.458   0.057
  189DMC      O 1921   2.079   0.631   0.204
  189DMC      C 1922   2.217   0.601   0.194
  189DMC      H 1923   1.782   0.404   0.102
  189DMC      H 1924   1.677   0.547   0.092
  189DMC      H 1925   1.796   0.518  -0.036
  189DMC      H 1926   2.272   0.672   0.259
  189DMC      H 1927   2.238   0.500   0.230
  189DMC      H 1928   2.252   0.614   0.092
  190DMC      C 1929   0.222   0.060   3.519
  190DMC      O 1930   0.323   0.043   3.618
  190DMC      C 1931   0.282   0.075   3.743
  190DMC      O 1932   0.171   0.115   3.775
  190DMC      O 1933   0.386   0.054   3.829
  190DMC      C 1934   0.356   0.084   3.964
  190DMC      H 1935   0.189   0.164   3.513
  190DMC      H 1936   0.264   0.032   3.422
  190DMC      H 1937   0.137  -0.005   3.539
  190DMC      H 1938   0.447   0.066   4.024
  190DMC      H 1939   0.330   0.191   3.975
  190DMC      H 1940   0.276   0.020   4.001
  191DMC      C 1941   1.913   2.128   0.257
  191DMC      O 1942   1.939   1.991   0.225
  191DMC      C 1943   1.988   1.919   0.329
  191DMC      O 1944   2.011   1.962   0.441
  191DMC      O 1945   2.008   1.792   0.287
  191DMC      C 1946   2.060   1.706   0.387
  191DMC      H 1947   2.006   2.179   0.286
  191DMC      H 1948   1.874   2.177   0.167
  191DMC      H 1949   1.838   2.136   0.336
  191DMC      H 1950   2.073   1.606   0.343
  191DMC      H 1951   2.158   1.741   0.421
  191DMC      H 1952   1.990   1.698   0.471
  192DMC      C 1953   0.188   2.871   3.205
  192DMC      O 1954   0.125   2.920   3.324
  192DMC      C 1955   0.207   2.990   3.405
  192DMC      O 1956   0.326   3.012   3.385
  192DMC      O 1957   0.136   3.032   3.513
  192DMC      C 1958   0.211   3.107   3.606
  192DMC      H 1959   0.270   2.802   3.230
  192DMC      H 1960   0.114   2.816   3.146
  192DMC      H 1961   0.226   2.954   3.144
  192DMC      H 1962   0.145   3.134   3.690
  192DMC      H 1963   0.293   3.046   3.647
  192DMC      H 1964   0.250   3.198   3.561
  193DMC      C 1965   1.221   3.091   0.713
  193DMC      O 1966   1.278   3.069   0.584
  193DMC      C 1967   1.241   2.951   0.527
  193DMC      O 1968   1.168   2.867   0.578
  193DMC      O 1969   1.300   2.943   0.405
  193DMC      C 1970   1.270   2.823   0.336
  193DMC      H 1971   1.254   3.014   0.784
  193DMC      H 1972   1.256   3.188   0.750
  193DMC      H 1973   1.112   3.093   0.708
  193DMC      H 1974   1.323   2.825   0.239
  193DMC      H 1975   1.306   2.735   0.392
  193DMC      H 1976   1.163   2.815   0.317
  194DMC      C 1977   3.620   0.967   2.093
  194DMC      O 1978   3.623   0.883   1.976
  194DMC      C 1979   3.651   0.754   2.003
  194DMC      O 1980   3.674   0.706   2.113
  194DMC      O 1981   3.650   0.685   1.886
  194DMC      C 1982   3.679   0.547   1.900
  194DMC      H 1983   3.718   0.968   2.142
  194DMC      H 1984   3.597   1.069   2.061
  194DMC      H 1985   3.543   0.934   2.162
  194DMC      H 1986   3.677   0.501   1.800
  194DMC      H 1987   3.780   0.533   1.941
  194DMC      H 1988   3.604   0.498   1.962
  195DMC      C 1989   3.664   1.691   3.572
  195DMC      O 1990   3.684   1.818   3.637
  195DMC      C 1991   3.734   1.913   3.555
  195DMC      O 1992   3.763   1.899   3.437
  195DMC      O 1993   3.747   2.028   3.627
  195DMC      C 1994   3.800   2.137   3.553
  195DMC      H 1995   3.760   1.651   3.536
  195DMC      H 1996   3.624   1.621   3.646
  195DMC      H 1997   3.593   1.700   3.490
  195DMC      H 1998   3.808   2.223   3.620
  195DMC      H 1999   3.901   2.113   3.517
  195DMC      H 2000   3.734   2.162   3.470
  196DMC      C 2001   0.294   3.965   1.188
  196DMC      O 2002   0.285   3.823   1.169
  196DMC      C 2003   0.159   3.775   1.179
  196DMC      O 2004   0.059   3.840   1.203
  196DMC      O 2005   0.164   3.640   1.159
  196DMC      C 2006   0.037   3.577   1.168
  196DMC      H 2007   0.260   3.993   1.288
  196DMC      H 2008   0.399   3.995   1.178
  196DMC      H 2009   0.236   4.018   1.112
  196DMC      H 2010   0.052   3.469   1.151
  196DMC      H 2011  -0.006   3.590   1.268
  196DMC      H 2012  -0.031   3.615   1.091
  197DMC      C 2013   1.512   1.840   2.348
  197DMC      O 2014   1.623   1.854   2.438
  197DMC      C 2015   1.589   1.904   2.559
  197DMC      O 2016   1.476   1.936   2.594
  197DMC      O 2017   1.701   1.913   2.635
  197DMC      C 2018   1.679   1.964   2.765
  197DMC      H 2019   1.466   1.937   2.327
  197DMC      H 2020   1.550   1.799   2.253
  197DMC      H 2021   1.439   1.770   2.388
  197DMC      H 2022   1.775   1.968   2.817
  197DMC      H 2023   1.639   2.067   2.759
  197DMC      H 2024   1.611   1.900   2.821
  198DMC      C 2025   3.630   0.412   1.241
  198DMC      O 2026   3.755   0.422   1.311
  198DMC      C 2027   3.755   0.358   1.431
  198DMC      O 2028   3.660   0.298   1.480
  198DMC      O 2029   3.877   0.374   1.487
  198DMC      C 2030   3.890   0.313   1.615
  198DMC      H 2031   3.550   0.459   1.298
  198DMC      H 2032   3.640   0.465   1.146
  198DMC      H 2033   3.606   0.308   1.219
  198DMC      H 2034   3.992   0.332   1.652
  198DMC      H 2035   3.819   0.356   1.686
  198DMC      H 2036   3.876   0.205   1.607
  199DMC      C 2037   2.366   0.842   1.637
  199DMC      O 2038   2.465   0.846   1.741
  199DMC      C 2039   2.549   0.952   1.731
  199DMC      O 2040   2.547   1.038   1.644
  199DMC      O 2041   2.637   0.946   1.835
  199DMC      C 2042   2.732   1.051   1.836
  199DMC      H 2043   2.414   0.832   1.539
  199DMC      H 2044   2.303   0.754   1.653
  199DMC      H 2045   2.303   0.931   1.640
  199DMC      H 2046   2.798   1.036   1.923
  199DMC      H 2047   2.794   1.048   1.745
  199DMC      H 2048   2.682   1.147   1.846
  200DMC      C 2049   1.795   1.587   1.716
  200DMC      O 2050   1.750   1.499   1.820
  200DMC      C 2051   1.815   1.516   1.937
  200DMC      O 2052   1.905   1.596   1.959
  200DMC      O 2053   1.763   1.429   2.028
  200DMC      C 2054   1.823   1.436   2.156
  200DMC      H 2055   1.900   1.569   1.693
  200DMC      H 2056   1.736   1.566   1.626
  200DMC      H 2057   1.779   1.691   1.743
  200DMC      H 2058   1.775   1.362   2.221
  200DMC      H 2059   1.930   1.412   2.149
  200DMC      H 2060   1.809   1.535   2.200
  201DMC      C 2061   0.136   3.282   1.278
  201DMC      O 2062   0.180   3.204   1.166
  201DMC      C 2063   0.144   3.255   1.046
  201DMC      O 2064   0.079   3.357   1.028
  201DMC      O 2065   0.191   3.173   0.949
  201DMC      C 2066   0.159   3.215   0.817
  201DMC      H 2067   0.027   3.288   1.280
  201DMC      H 2068   0.170   3.233   1.370
  201DMC      H 2069   0.179   3.382   1.274
  201DMC      H 2070   0.201   3.142   0.747
  201DMC      H 2071   0.050   3.217   0.803
  201DMC      H 2072   0.203   3.312   0.797
  202DMC      C 2073   0.952   2.719   0.470
  202DMC      O 2074   0.965   2.576   0.471
  202DMC      C 2075   1.089   2.533   0.503
  202DMC      O 2076   1.186   2.604   0.528
  202DMC      O 2077   1.089   2.397   0.501
  202DMC      C 2078   1.215   2.339   0.533
  202DMC      H 2079   1.018   2.763   0.395
  202DMC      H 2080   0.848   2.743   0.444
  202DMC      H 2081   0.973   2.760   0.569
  202DMC      H 2082   1.204   2.230   0.528
  202DMC      H 2083   1.291   2.369   0.459
  202DMC      H 2084   1.246   2.367   0.634
  203DMC      C 2085   3.790   1.993   2.294
  203DMC      O 2086   3.727   1.883   2.228
  203DMC      C 2087   3.621   1.919   2.151
  203DMC      O 2088   3.579   2.032   2.135
  203DMC      O 2089   3.571   1.806   2.093
  203DMC      C 2090   3.459   1.830   2.010
  203DMC      H 2091   3.720   2.043   2.361
  203DMC      H 2092   3.873   1.954   2.353
  203DMC      H 2093   3.830   2.064   2.221
  203DMC      H 2094   3.425   1.734   1.969
  203DMC      H 2095   3.376   1.874   2.067
  203DMC      H 2096   3.486   1.895   1.926
  204DMC      C 2097   0.681   3.375   2.171
  204DMC      O 2098   0.699   3.511   2.131
  204DMC      C 2099   0.596   3.561   2.058
  204DMC      O 2100   0.495   3.500   2.026
  204DMC      O 2101   0.625   3.690   2.026
  204DMC      C 2102   0.525   3.754   1.949
  204DMC      H 2103   0.672   3.310   2.084
  204DMC      H 2104   0.768   3.344   2.229
  204DMC      H 2105   0.592   3.365   2.234
  204DMC      H 2106   0.558   3.857   1.928
  204DMC      H 2107   0.512   3.703   1.853
  204DMC      H 2108   0.431   3.758   2.004
  205DMC      C 2109   0.138   1.030   3.335
  205DMC      O 2110   0.199   0.909   3.383
  205DMC      C 2111   0.168   0.800   3.308
  205DMC      O 2112   0.096   0.798   3.210
  205DMC      O 2113   0.231   0.692   3.363
  205DMC      C 2114   0.207   0.571   3.294
  205DMC      H 2115   0.029   1.022   3.338
  205DMC      H 2116   0.169   1.112   3.401
  205DMC      H 2117   0.172   1.053   3.234
  205DMC      H 2118   0.261   0.491   3.346
  205DMC      H 2119   0.099   0.546   3.296
  205DMC      H 2120   0.243   0.577   3.191
  206DMC      C 2121   0.564   2.799   1.757
  206DMC      O 2122   0.634   2.798   1.632
  206DMC      C 2123   0.573   2.724   1.536
  206DMC      O 2124   0.468   2.662   1.549
  206DMC      O 2125   0.647   2.731   1.423
  206DMC      C 2126   0.594   2.657   1.314
  206DMC      H 2127   0.557   2.698   1.798
  206DMC      H 2128   0.621   2.861   1.827
  206DMC      H 2129   0.465   2.843   1.745
  206DMC      H 2130   0.662   2.668   1.228
  206DMC      H 2131   0.589   2.550   1.339
  206DMC      H 2132   0.496   2.695   1.286
  207DMC      C 2133   0.777   0.915   2.580
  207DMC      O 2134   0.690   1.001   2.654
  207DMC      C 2135   0.726   1.018   2.783
  207DMC      O 2136   0.823   0.967   2.838
  207DMC      O 2137   0.637   1.101   2.842
  207DMC      C 2138   0.664   1.127   2.979
  207DMC      H 2139   0.778   0.814   2.623
  207DMC      H 2140   0.739   0.908   2.477
  207DMC      H 2141   0.878   0.956   2.577
  207DMC      H 2142   0.586   1.194   3.017
  207DMC      H 2143   0.660   1.034   3.037
  207DMC      H 2144   0.761   1.176   2.991
  208DMC      C 2145   1.268   2.872   3.593
  208DMC      O 2146   1.376   2.928   3.669
  208DMC      C 2147   1.367   2.904   3.802
  208DMC      O 2148   1.278   2.841   3.857
  208DMC      O 2149   1.474   2.962   3.863
  208DMC      C 2150   1.476   2.944   4.003
  208DMC      H 2151   1.172   2.914   3.624
  208DMC      H 2152   1.285   2.897   3.487
  208DMC      H 2153   1.267   2.763   3.602
  208DMC      H 2154   1.565   2.994   4.043
  208DMC      H 2155   1.388   2.990   4.050
  208DMC      H 2156   1.482   2.838   4.029
  209DMC      C 2157   3.200   2.907   0.458
  209DMC      O 2158   3.338   2.928   0.430
  209DMC      C 2159   3.411   2.963   0.538
  209DMC      O 2160   3.368   2.978   0.652
  209DMC      O 2161   3.541   2.980   0.499
  209DMC      C 2162   3.628   3.017   0.604
  209DMC      H 2163   3.153   2.999   0.496
  209DMC      H 2164   3.150   2.879   0.365
  209DMC      H 2165   3.186   2.826   0.530
  209DMC      H 2166   3.729   3.029   0.563
  209DMC      H 2167   3.598   3.114   0.647
  209DMC      H 2168   3.631   2.940   0.681
  210DMC      C 2169   0.363  -0.043   2.784
  210DMC      O 2170   0.306   0.088   2.797
  210DMC      C 2171   0.386   0.188   2.752
  210DMC      O 2172   0.498   0.174   2.706
  210DMC      O 2173   0.320   0.306   2.769
  210DMC      C 2174   0.394   0.419   2.727
  210DMC      H 2175   0.455  -0.050   2.844
  210DMC      H 2176   0.291  -0.116   2.822
  210DMC      H 2177   0.384  -0.066   2.680
  210DMC      H 2178   0.333   0.508   2.745
  210DMC      H 2179   0.487   0.428   2.785
  210DMC      H 2180   0.416   0.413   2.620
  211DMC      C 2181   1.566   1.178   0.431
  211DMC      O 2182   1.431   1.138   0.408
  211DMC      C 2183   1.369   1.089   0.518
  211DMC      O 2184   1.419   1.077   0.629
  211DMC      O 2185   1.242   1.055   0.484
  211DMC      C 2186   1.166   1.002   0.591
  211DMC      H 2187   1.627   1.092   0.464
  211DMC      H 2188   1.608   1.215   0.337
  211DMC      H 2189   1.571   1.258   0.505
  211DMC      H 2190   1.065   0.977   0.553
  211DMC      H 2191   1.211   0.909   0.629
  211DMC      H 2192   1.155   1.076   0.671
  212DMC      C 2193   2.935   0.627  -0.016
  212DMC      O 2194   2.969   0.717   0.090
  212DMC      C 2195   3.097   0.705   0.134
  212DMC      O 2196   3.179   0.626   0.091
  212DMC      O 2197   3.116   0.795   0.233
  212DMC      C 2198   3.247   0.792   0.288
  212DMC      H 2199   2.945   0.523   0.017
  212DMC      H 2200   2.831   0.644  -0.044
  212DMC      H 2201   2.998   0.645  -0.103
  212DMC      H 2202   3.253   0.868   0.367
  212DMC      H 2203   3.268   0.694   0.333
  212DMC      H 2204   3.321   0.817   0.212
  213DMC      C 2205   3.077   0.487   1.854
  213DMC      O 2206   3.153   0.606   1.875
  213DMC      C 2207   3.184   0.672   1.761
  213DMC      O 2208   3.155   0.637   1.648
  213DMC      O 2209   3.255   0.783   1.795
  213DMC      C 2210   3.296   0.861   1.683
  213DMC      H 2211   3.134   0.415   1.794
  213DMC      H 2212   3.056   0.441   1.951
  213DMC      H 2213   2.982   0.509   1.805
  213DMC      H 2214   3.352   0.947   1.721
  213DMC      H 2215   3.362   0.803   1.617
  213DMC      H 2216   3.209   0.898   1.629
  214DMC      C 2217   3.822   0.720   0.794
  214DMC      O 2218   3.816   0.726   0.651
  214DMC      C 2219   3.750   0.622   0.595
  214DMC      O 2220   3.699   0.529   0.656
  214DMC      O 2221   3.751   0.638   0.461
  214DMC      C 2222   3.685   0.535   0.390
  214DMC      H 2223   3.875   0.631   0.828
  214DMC      H 2224   3.877   0.808   0.830
  214DMC      H 2225   3.722   0.723   0.837
  214DMC      H 2226   3.692   0.557   0.282
  214DMC      H 2227   3.734   0.438   0.408
  214DMC      H 2228   3.580   0.531   0.417
  215DMC      C 2229   1.004   0.587   2.444
  215DMC      O 2230   1.127   0.534   2.495
  215DMC      C 2231   1.206   0.627   2.553
  215DMC      O 2232   1.181   0.746   2.564
  215DMC      O 2233   1.318   0.565   2.598
  215DMC      C 2234   1.411   0.652   2.661
  215DMC      H 2235   1.023   0.662   2.366
  215DMC      H 2236   0.947   0.505   2.399
  215DMC      H 2237   0.944   0.630   2.524
  215DMC      H 2238   1.498   0.592   2.692
  215DMC      H 2239   1.446   0.729   2.591
  215DMC      H 2240   1.366   0.697   2.750
  216DMC      C 2241   0.304   1.083   3.609
  216DMC      O 2242   0.435   1.086   3.550
  216DMC      C 2243   0.448   1.180   3.453
  216DMC      O 2244   0.361   1.257   3.414
  216DMC      O 2245   0.576   1.174   3.406
  216DMC      C 2246   0.603   1.268   3.303
  216DMC      H 2247   0.228   1.058   3.533
  216DMC      H 2248   0.303   1.005   3.685
  216DMC      H 2249   0.281   1.178   3.656
  216DMC      H 2250   0.707   1.254   3.271
  216DMC      H 2251   0.538   1.249   3.215
  216DMC      H 2252   0.590   1.370   3.339
  217DMC      C 2253   2.319   0.527   3.606
  217DMC      O 2254   2.372   0.502   3.737
  217DMC      C 2255   2.406   0.615   3.804
  217DMC      O 2256   2.396   0.729   3.762
  217DMC      O 2257   2.454   0.579   3.926
  217DMC      C 2258   2.495   0.688   4.006
  217DMC      H 2259   2.393   0.577   3.543
  217DMC      H 2260   2.294   0.430   3.560
  217DMC      H 2261   2.228   0.586   3.612
  217DMC      H 2262   2.532   0.649   4.101
  217DMC      H 2263   2.576   0.744   3.958
  217DMC      H 2264   2.410   0.754   4.027
  218DMC      C 2265   3.472   1.310   1.456
  218DMC      O 2266   3.443   1.432   1.526
  218DMC      C 2267   3.492   1.543   1.465
  218DMC      O 2268   3.556   1.545   1.360
  218DMC      O 2269   3.458   1.651   1.540
  218DMC      C 2270   3.503   1.774   1.486
  218DMC      H 2271   3.580   1.295   1.449
  218DMC      H 2272   3.429   1.227   1.513
  218DMC      H 2273   3.427   1.311   1.357
  218DMC      H 2274   3.472   1.855   1.554
  218DMC      H 2275   3.613   1.776   1.481
  218DMC      H 2276   3.460   1.792   1.388
  219DMC      C 2277   0.998   2.439   2.407
  219DMC      O 2278   0.929   2.421   2.282
  219DMC      C 2279   0.991   2.479   2.177
  219DMC      O 2280   1.095   2.543   2.181
  219DMC      O 2281   0.917   2.455   2.065
  219DMC      C 2282   0.971   2.512   1.947
  219DMC      H 2283   1.005   2.545   2.432
  219DMC      H 2284   0.940   2.388   2.485
  219DMC      H 2285   1.097   2.394   2.403
  219DMC      H 2286   0.904   2.488   1.864
  219DMC      H 2287   0.977   2.621   1.956
  219DMC      H 2288   1.070   2.470   1.926
  220DMC      C 2289   1.914   2.274   2.222
  220DMC      O 2290   1.985   2.316   2.339
  220DMC      C 2291   1.976   2.229   2.442
  220DMC      O 2292   1.914   2.124   2.443
  220DMC      O 2293   2.048   2.280   2.546
  220DMC      C 2294   2.047   2.198   2.662
  220DMC      H 2295   1.807   2.265   2.244
  220DMC      H 2296   1.927   2.350   2.145
  220DMC      H 2297   1.953   2.180   2.185
  220DMC      H 2298   2.107   2.247   2.740
  220DMC      H 2299   1.944   2.187   2.700
  220DMC      H 2300   2.091   2.100   2.641
  221DMC      C 2301   1.694   2.999   3.160
  221DMC      O 2302   1.638   3.110   3.088
  221DMC      C 2303   1.612   3.084   2.958
  221DMC      O 2304   1.633   2.978   2.901
  221DMC      O 2305   1.560   3.196   2.901
  221DMC      C 2306   1.528   3.181   2.764
  221DMC      H 2307   1.790   2.970   3.116
  221DMC      H 2308   1.711   3.030   3.263
  221DMC      H 2309   1.624   2.915   3.160
  221DMC      H 2310   1.488   3.277   2.728
  221DMC      H 2311   1.619   3.159   2.706
  221DMC      H 2312   1.453   3.104   2.749
  222DMC      C 2313   1.343   3.216   2.551
  222DMC      O 2314   1.299   3.154   2.672
  222DMC      C 2315   1.166   3.167   2.694
  222DMC      O 2316   1.086   3.225   2.622
  222DMC      O 2317   1.135   3.104   2.811
  222DMC      C 2318   0.998   3.110   2.845
  222DMC      H 2319   1.325   3.324   2.554
  222DMC      H 2320   1.451   3.200   2.542
  222DMC      H 2321   1.295   3.171   2.464
  222DMC      H 2322   0.984   3.058   2.941
  222DMC      H 2323   0.967   3.215   2.860
  222DMC      H 2324   0.937   3.062   2.770
  223DMC      C 2325   0.380   0.441   0.791
  223DMC      O 2326   0.393   0.492   0.657
  223DMC      C 2327   0.409   0.627   0.652
  223DMC      O 2328   0.412   0.703   0.747
  223DMC      O 2329   0.420   0.663   0.521
  223DMC      C 2330   0.437   0.802   0.501
  223DMC      H 2331   0.292   0.483   0.840
  223DMC      H 2332   0.368   0.333   0.785
  223DMC      H 2333   0.470   0.463   0.849
  223DMC      H 2334   0.444   0.821   0.393
  223DMC      H 2335   0.350   0.857   0.539
  223DMC      H 2336   0.529   0.837   0.548
  224DMC      C 2337   1.913   1.565   2.998
  224DMC      O 2338   1.978   1.687   3.038
  224DMC      C 2339   2.084   1.667   3.120
  224DMC      O 2340   2.124   1.558   3.160
  224DMC      O 2341   2.137   1.788   3.151
  224DMC      C 2342   2.249   1.781   3.237
  224DMC      H 2343   1.873   1.512   3.084
  224DMC      H 2344   1.829   1.592   2.932
  224DMC      H 2345   1.981   1.502   2.942
  224DMC      H 2346   2.284   1.883   3.256
  224DMC      H 2347   2.221   1.736   3.333
  224DMC      H 2348   2.330   1.725   3.190
  225DMC      C 2349   0.362   2.240   0.361
  225DMC      O 2350   0.263   2.308   0.283
  225DMC      C 2351   0.144   2.245   0.279
  225DMC      O 2352   0.117   2.139   0.334
  225DMC      O 2353   0.059   2.319   0.204
  225DMC      C 2354  -0.071   2.264   0.191
  225DMC      H 2355   0.383   2.141   0.319
  225DMC      H 2356   0.455   2.298   0.358
  225DMC      H 2357   0.330   2.231   0.465
  225DMC      H 2358  -0.131   2.330   0.128
  225DMC      H 2359  -0.066   2.165   0.142
  225DMC      H 2360  -0.119   2.256   0.289
  226DMC      C 2361   0.054   2.481   0.881
  226DMC      O 2362  -0.031   2.461   0.994
  226DMC      C 2363   0.029   2.488   1.113
  226DMC      O 2364   0.144   2.526   1.128
  226DMC      O 2365  -0.061   2.465   1.212
  226DMC      C 2366  -0.011   2.489   1.342
  226DMC      H 2367   0.141   2.416   0.885
  226DMC      H 2368  -0.004   2.457   0.791
  226DMC      H 2369   0.085   2.586   0.875
  226DMC      H 2370  -0.090   2.467   1.415
  226DMC      H 2371   0.074   2.423   1.364
  226DMC      H 2372   0.018   2.594   1.353
  227DMC      C 2373   1.680   0.294   0.443
  227DMC      O 2374   1.758   0.186   0.391
  227DMC      C 2375   1.810   0.105   0.486
  227DMC      O 2376   1.797   0.119   0.607
  227DMC      O 2377   1.881   0.007   0.424
  227DMC      C 2378   1.942  -0.085   0.513
  227DMC      H 2379   1.742   0.359   0.506
  227DMC      H 2380   1.642   0.353   0.359
  227DMC      H 2381   1.595   0.256   0.500
  227DMC      H 2382   1.997  -0.159   0.454
  227DMC      H 2383   2.014  -0.033   0.578
  227DMC      H 2384   1.867  -0.137   0.573
  228DMC      C 2385   1.397   3.710   3.098
  228DMC      O 2386   1.459   3.619   3.190
  228DMC      C 2387   1.444   3.489   3.157
  228DMC      O 2388   1.385   3.446   3.059
  228DMC      O 2389   1.507   3.413   3.250
  228DMC      C 2390   1.499   3.273   3.227
  228DMC      H 2391   1.289   3.692   3.094
  228DMC      H 2392   1.414   3.812   3.134
  228DMC      H 2393   1.441   3.700   2.999
  228DMC      H 2394   1.552   3.222   3.308
  228DMC      H 2395   1.394   3.240   3.228
  228DMC      H 2396   1.547   3.248   3.132
  229DMC      C 2397  -0.005   0.853   1.710
  229DMC      O 2398   0.038   0.951   1.806
  229DMC      C 2399   0.124   0.903   1.898
  229DMC      O 2400   0.164   0.788   1.906
  229DMC      O 2401   0.158   1.005   1.982
  229DMC      C 2402   0.248   0.967   2.085
  229DMC      H 2403  -0.058   0.771   1.760
  229DMC      H 2404  -0.074   0.901   1.640
  229DMC      H 2405   0.080   0.814   1.654
  229DMC      H 2406   0.268   1.055   2.147
  229DMC      H 2407   0.203   0.890   2.149
  229DMC      H 2408   0.342   0.932   2.042
  230DMC      C 2409   3.295   2.598   2.400
  230DMC      O 2410   3.364   2.534   2.508
  230DMC      C 2411   3.285   2.459   2.587
  230DMC      O 2412   3.164   2.443   2.574
  230DMC      O 2413   3.362   2.404   2.685
  230DMC      C 2414   3.290   2.322   2.776
  230DMC      H 2415   3.218   2.666   2.438
  230DMC      H 2416   3.367   2.655   2.342
  230DMC      H 2417   3.249   2.523   2.334
  230DMC      H 2418   3.361   2.283   2.850
  230DMC      H 2419   3.214   2.381   2.829
  230DMC      H 2420   3.245   2.238   2.724
  231DMC      C 2421   3.459   2.759   4.006
  231DMC      O 2422   3.561   2.824   3.928
  231DMC      C 2423   3.593   2.759   3.814
  231DMC      O 2424   3.543   2.654   3.775
  231DMC      O 2425   3.689   2.830   3.750
  231DMC      C 2426   3.732   2.772   3.628
  231DMC      H 2427   3.492   2.659   4.037
  231DMC      H 2428   3.441   2.819   4.095
  231DMC      H 2429   3.366   2.753   3.949
  231DMC      H 2430   3.810   2.836   3.585
  231DMC      H 2431   3.776   2.672   3.646
  231DMC      H 2432   3.649   2.765   3.557
  232DMC      C 2433   1.756   3.620   3.792
  232DMC      O 2434   1.642   3.535   3.776
  232DMC      C 2435   1.526   3.602   3.760
  232DMC      O 2436   1.513   3.724   3.760
  232DMC      O 2437   1.426   3.512   3.746
  232DMC      C 2438   1.298   3.570   3.729
  232DMC      H 2439   1.746   3.682   3.882
  232DMC      H 2440   1.845   3.557   3.804
  232DMC      H 2441   1.771   3.683   3.704
  232DMC      H 2442   1.224   3.488   3.719
  232DMC      H 2443   1.270   3.629   3.817
  232DMC      H 2444   1.295   3.631   3.638
  233DMC      C 2445   1.868   0.603   1.538
  233DMC      O 2446   1.846   0.561   1.403
  233DMC      C 2447   1.780   0.651   1.328
  233DMC      O 2448   1.739   0.760   1.366
  233DMC      O 2449   1.765   0.600   1.202
  233DMC      C 2450   1.696   0.686   1.113
  233DMC      H 2451   1.773   0.619   1.590
  233DMC      H 2452   1.922   0.524   1.590
  233DMC      H 2453   1.929   0.694   1.541
  233DMC      H 2454   1.689   0.636   1.016
  233DMC      H 2455   1.594   0.705   1.149
  233DMC      H 2456   1.750   0.780   1.100
  234DMC      C 2457   3.554   1.118   2.604
  234DMC      O 2458   3.659   1.029   2.563
  234DMC      C 2459   3.729   1.074   2.456
  234DMC      O 2460   3.709   1.179   2.396
  234DMC      O 2461   3.825   0.983   2.427
  234DMC      C 2462   3.906   1.018   2.316
  234DMC      H 2463   3.481   1.131   2.524
  234DMC      H 2464   3.504   1.073   2.691
  234DMC      H 2465   3.595   1.215   2.634
  234DMC      H 2466   3.979   0.937   2.300
  234DMC      H 2467   3.845   1.026   2.225
  234DMC      H 2468   3.960   1.111   2.335
  235DMC      C 2469   0.838   2.284   0.412
  235DMC      O 2470   0.826   2.237   0.277
  235DMC      C 2471   0.879   2.114   0.257
  235DMC      O 2472   0.933   2.045   0.342
  235DMC      O 2473   0.862   2.081   0.126
  235DMC      C 2474   0.913   1.953   0.092
  235DMC      H 2475   0.943   2.292   0.441
  235DMC      H 2476   0.793   2.383   0.418
  235DMC      H 2477   0.784   2.218   0.480
  235DMC      H 2478   0.895   1.937  -0.015
  235DMC      H 2479   1.022   1.950   0.109
  235DMC      H 2480   0.862   1.875   0.148
  236DMC      C 2481   2.738   1.972   0.569
  236DMC      O 2482   2.808   1.945   0.691
  236DMC      C 2483   2.922   1.873   0.673
  236DMC      O 2484   2.965   1.832   0.566
  236DMC      O 2485   2.980   1.855   0.795
  236DMC      C 2486   3.100   1.780   0.790
  236DMC      H 2487   2.706   1.878   0.521
  236DMC      H 2488   2.648   2.030   0.593
  236DMC      H 2489   2.799   2.030   0.500
  236DMC      H 2490   3.138   1.770   0.893
  236DMC      H 2491   3.081   1.679   0.751
  236DMC      H 2492   3.175   1.832   0.730
  237DMC      C 2493   0.955   3.345   0.594
  237DMC      O 2494   0.918   3.442   0.495
  237DMC      C 2495   0.887   3.388   0.375
  237DMC      O 2496   0.889   3.269   0.347
  237DMC      O 2497   0.854   3.489   0.290
  237DMC      C 2498   0.819   3.446   0.160
  237DMC      H 2499   1.044   3.290   0.563
  237DMC      H 2500   0.978   3.398   0.687
  237DMC      H 2501   0.872   3.277   0.613
  237DMC      H 2502   0.795   3.535   0.099
  237DMC      H 2503   0.904   3.395   0.112
  237DMC      H 2504   0.732   3.381   0.163
  238DMC      C 2505   2.483   0.553   2.194
  238DMC      O 2506   2.588   0.467   2.240
  238DMC      C 2507   2.559   0.335   2.229
  238DMC      O 2508   2.455   0.288   2.185
  238DMC      O 2509   2.666   0.264   2.275
  238DMC      C 2510   2.648   0.124   2.269
  238DMC      H 2511   2.392   0.538   2.253
  238DMC      H 2512   2.516   0.657   2.207
  238DMC      H 2513   2.463   0.536   2.088
  238DMC      H 2514   2.739   0.076   2.309
  238DMC      H 2515   2.563   0.093   2.332
  238DMC      H 2516   2.634   0.091   2.166
  239DMC      C 2517   0.842   2.879  -0.138
  239DMC      O 2518   0.822   2.946  -0.013
  239DMC      C 2519   0.692   2.957   0.023
  239DMC      O 2520   0.596   2.916  -0.042
  239DMC      O 2521   0.686   3.021   0.142
  239DMC      C 2522   0.554   3.039   0.191
  239DMC      H 2523   0.794   2.934  -0.220
  239DMC      H 2524   0.949   2.875  -0.158
  239DMC      H 2525   0.804   2.777  -0.134
  239DMC      H 2526   0.560   3.092   0.287
  239DMC      H 2527   0.495   3.101   0.122
  239DMC      H 2528   0.506   2.943   0.208
  240DMC      C 2529   0.099   3.385   3.550
  240DMC      O 2530   0.050   3.328   3.428
  240DMC      C 2531   0.068   3.407   3.320
  240DMC      O 2532   0.119   3.518   3.320
  240DMC      O 2533   0.019   3.342   3.211
  240DMC      C 2534   0.031   3.415   3.090
  240DMC      H 2535   0.046   3.479   3.573
  240DMC      H 2536   0.080   3.314   3.631
  240DMC      H 2537   0.206   3.403   3.544
  240DMC      H 2538  -0.012   3.355   3.009
  240DMC      H 2539  -0.026   3.509   3.096
  240DMC      H 2540   0.136   3.434   3.067
  241DMC      C 2541   2.928   3.584   2.387
  241DMC      O 2542   2.988   3.621   2.262
  241DMC      C 2543   3.046   3.743   2.264
  241DMC      O 2544   3.050   3.819   2.359
  241DMC      O 2545   3.099   3.766   2.141
  241DMC      C 2546   3.163   3.892   2.129
  241DMC      H 2547   2.848   3.654   2.414
  241DMC      H 2548   2.884   3.484   2.376
  241DMC      H 2549   3.003   3.580   2.466
  241DMC      H 2550   3.202   3.901   2.026
  241DMC      H 2551   3.092   3.974   2.145
  241DMC      H 2552   3.247   3.899   2.198
  242DMC      C 2553   3.826   3.571   0.298
  242DMC      O 2554   3.732   3.555   0.406
  242DMC      C 2555   3.749   3.644   0.506
  242DMC      O 2556   3.835   3.731   0.512
  242DMC      O 2557   3.655   3.620   0.601
  242DMC      C 2558   3.662   3.706   0.713
  242DMC      H 2559   3.928   3.555   0.334
  242DMC      H 2560   3.804   3.495   0.222
  242DMC      H 2561   3.816   3.669   0.253
  242DMC      H 2562   3.583   3.678   0.784
  242DMC      H 2563   3.759   3.695   0.765
  242DMC      H 2564   3.646   3.810   0.683
  243DMC      C 2565   1.469   2.788   3.308
  243DMC      O 2566   1.609   2.803   3.282
  243DMC      C 2567   1.654   2.727   3.180
  243DMC      O 2568   1.587   2.650   3.113
  243DMC      O 2569   1.787   2.750   3.165
  243DMC      C 2570   1.847   2.676   3.060
  243DMC      H 2571   1.446   2.685   3.336
  243DMC      H 2572   1.443   2.853   3.392
  243DMC      H 2573   1.410   2.818   3.222
  243DMC      H 2574   1.954   2.701   3.056
  243DMC      H 2575   1.838   2.568   3.079
  243DMC      H 2576   1.802   2.701   2.964
  244DMC      C 2577   0.145   0.712   1.422
  244DMC      O 2578   0.276   0.662   1.451
  244DMC      C 2579   0.300   0.645   1.583
  244DMC      O 2580   0.222   0.670   1.674
  244DMC      O 2581   0.426   0.597   1.598
  244DMC      C 2582   0.464   0.576   1.733
  244DMC      H 2583   0.131   0.811   1.466
  244DMC      H 2584   0.135   0.721   1.313
  244DMC      H 2585   0.069   0.643   1.457
  244DMC      H 2586   0.567   0.538   1.734
  244DMC      H 2587   0.463   0.671   1.789
  244DMC      H 2588   0.400   0.502   1.780
  245DMC      C 2589   0.204   2.553   2.905
  245DMC      O 2590   0.101   2.485   2.977
  245DMC      C 2591   0.079   2.359   2.935
  245DMC      O 2592   0.137   2.303   2.843
  245DMC      O 2593  -0.020   2.305   3.011
  245DMC      C 2594  -0.054   2.172   2.976
  245DMC      H 2595   0.178   2.562   2.799
  245DMC      H 2596   0.215   2.654   2.947
  245DMC      H 2597   0.300   2.501   2.916
  245DMC      H 2598  -0.135   2.139   3.042
  245DMC      H 2599  -0.091   2.168   2.872
  245DMC      H 2600   0.032   2.106   2.989
  246DMC      C 2601   1.119   1.179   2.858
  246DMC      O 2602   1.148   1.241   2.731
  246DMC      C 2603   1.146   1.154   2.627
  246DMC      O 2604   1.123   1.035   2.633
  246DMC      O 2605   1.175   1.224   2.514
  246DMC      C 2606   1.176   1.145   2.396
  246DMC      H 2607   1.193   1.102   2.881
  246DMC      H 2608   1.122   1.256   2.935
  246DMC      H 2609   1.019   1.136   2.857
  246DMC      H 2610   1.201   1.210   2.311
  246DMC      H 2611   1.254   1.067   2.403
  246DMC      H 2612   1.078   1.100   2.379
  247DMC      C 2613   2.719   2.462   2.789
  247DMC      O 2614   2.673   2.577   2.718
  247DMC      C 2615   2.543   2.608   2.740
  247DMC      O 2616   2.467   2.546   2.813
  247DMC      O 2617   2.512   2.718   2.668
  247DMC      C 2618   2.378   2.761   2.683
  247DMC      H 2619   2.663   2.373   2.759
  247DMC      H 2620   2.824   2.446   2.765
  247DMC      H 2621   2.711   2.478   2.897
  247DMC      H 2622   2.362   2.850   2.620
  247DMC      H 2623   2.309   2.682   2.648
  247DMC      H 2624   2.357   2.787   2.786
  248DMC      C 2625   3.339   2.942   3.307
  248DMC      O 2626   3.288   3.058   3.239
  248DMC      C 2627   3.167   3.040   3.183
  248DMC      O 2628   3.102   2.936   3.185
  248DMC      O 2629   3.130   3.156   3.123
  248DMC      C 2630   3.003   3.150   3.059
  248DMC      H 2631   3.351   2.859   3.237
  248DMC      H 2632   3.436   2.967   3.349
  248DMC      H 2633   3.272   2.913   3.389
  248DMC      H 2634   2.983   3.248   3.013
  248DMC      H 2635   3.004   3.075   2.979
  248DMC      H 2636   2.925   3.129   3.131
  249DMC      C 2637   0.467   0.525   3.416
  249DMC      O 2638   0.472   0.540   3.274
  249DMC      C 2639   0.470   0.669   3.232
  249DMC      O 2640   0.465   0.767   3.304
  249DMC      O 2641   0.475   0.670   3.097
  249DMC      C 2642   0.474   0.800   3.040
  249DMC      H 2643   0.375   0.568   3.457
  249DMC      H 2644   0.469   0.418   3.440
  249DMC      H 2645   0.554   0.572   3.463
  249DMC      H 2646   0.477   0.790   2.931
  249DMC      H 2647   0.381   0.852   3.066
  249DMC      H 2648   0.561   0.857   3.072
  250DMC      C 2649   2.116   1.427   3.545
  250DMC      O 2650   2.140   1.545   3.622
  250DMC      C 2651   2.263   1.599   3.604
  250DMC      O 2652   2.350   1.554   3.531
  250DMC      O 2653   2.273   1.709   3.683
  250DMC      C 2654   2.398   1.775   3.673
  250DMC      H 2655   2.187   1.348   3.572
  250DMC      H 2656   2.015   1.392   3.566
  250DMC      H 2657   2.124   1.449   3.438
  250DMC      H 2658   2.396   1.862   3.740
  250DMC      H 2659   2.479   1.709   3.707
  250DMC      H 2660   2.416   1.810   3.571
  251DMC      C 2661   2.845   3.595   0.520
  251DMC      O 2662   2.829   3.579   0.378
  251DMC      C 2663   2.841   3.451   0.336
  251DMC      O 2664   2.864   3.354   0.407
  251DMC      O 2665   2.824   3.448   0.201
  251DMC      C 2666   2.834   3.319   0.144
  251DMC      H 2667   2.945   3.563   0.551
  251DMC      H 2668   2.833   3.701   0.544
  251DMC      H 2669   2.769   3.539   0.574
  251DMC      H 2670   2.820   3.328   0.035
  251DMC      H 2671   2.935   3.278   0.161
  251DMC      H 2672   2.758   3.253   0.184
  252DMC      C 2673   1.708   1.524   1.372
  252DMC      O 2674   1.681   1.391   1.328
  252DMC      C 2675   1.557   1.374   1.276
  252DMC      O 2676   1.472   1.461   1.266
  252DMC      O 2677   1.544   1.244   1.238
  252DMC      C 2678   1.418   1.214   1.182
  252DMC      H 2679   1.639   1.554   1.452
  252DMC      H 2680   1.810   1.528   1.412
  252DMC      H 2681   1.702   1.594   1.289
  252DMC      H 2682   1.417   1.107   1.156
  252DMC      H 2683   1.338   1.231   1.256
  252DMC      H 2684   1.400   1.272   1.092
  253DMC      C 2685   0.644   1.869   3.719
  253DMC      O 2686   0.574   1.918   3.605
  253DMC      C 2687   0.653   1.978   3.513
  253DMC      O 2688   0.775   1.991   3.521
  253DMC      O 2689   0.575   2.020   3.410
  253DMC      C 2690   0.647   2.084   3.306
  253DMC      H 2691   0.694   1.951   3.772
  253DMC      H 2692   0.572   1.823   3.787
  253DMC      H 2693   0.717   1.793   3.690
  253DMC      H 2694   0.576   2.115   3.228
  253DMC      H 2695   0.697   2.175   3.344
  253DMC      H 2696   0.720   2.016   3.261
  254DMC      C 2697   0.158   1.432   0.821
  254DMC      O 2698   0.145   1.568   0.776
  254DMC      C 2699   0.033   1.630   0.819
  254DMC      O 2700  -0.053   1.580   0.890
  254DMC      O 2701   0.033   1.756   0.770
  254DMC      C 2702  -0.081   1.833   0.809
  254DMC      H 2703   0.075   1.371   0.785
  254DMC      H 2704   0.251   1.391   0.781
  254DMC      H 2705   0.163   1.429   0.930
  254DMC      H 2706  -0.072   1.932   0.764
  254DMC      H 2707  -0.173   1.786   0.771
  254DMC      H 2708  -0.084   1.844   0.917
  255DMC      C 2709   3.295   2.928   2.585
  255DMC      O 2710   3.219   2.882   2.698
  255DMC      C 2711   3.262   2.763   2.748
  255DMC      O 2712   3.355   2.697   2.704
  255DMC      O 2713   3.184   2.731   2.854
  255DMC      C 2714   3.218   2.608   2.915
  255DMC      H 2715   3.287   2.857   2.502
  255DMC      H 2716   3.253   3.024   2.553
  255DMC      H 2717   3.399   2.943   2.613
  255DMC      H 2718   3.149   2.590   2.999
  255DMC      H 2719   3.207   2.525   2.844
  255DMC      H 2720   3.320   2.611   2.955
  256DMC      C 2721   0.080   1.249   4.012
  256DMC      O 2722   0.037   1.173   3.898
  256DMC      C 2723   0.053   1.237   3.780
  256DMC      O 2724   0.099   1.349   3.765
  256DMC      O 2725   0.009   1.155   3.681
  256DMC      C 2726   0.020   1.212   3.551
  256DMC      H 2727   0.022   1.341   4.021
  256DMC      H 2728   0.063   1.189   4.102
  256DMC      H 2729   0.187   1.271   4.005
  256DMC      H 2730  -0.019   1.139   3.479
  256DMC      H 2731  -0.041   1.303   3.543
  256DMC      H 2732   0.124   1.232   3.527
  257DMC      C 2733   2.249   0.501   0.745
  257DMC      O 2734   2.307   0.512   0.614
  257DMC      C 2735   2.303   0.398   0.543
  257DMC      O 2736   2.256   0.291   0.580
  257DMC      O 2737   2.361   0.421   0.422
  257DMC      C 2738   2.363   0.307   0.337
  257DMC      H 2739   2.303   0.427   0.805
  257DMC      H 2740   2.257   0.599   0.794
  257DMC      H 2741   2.143   0.475   0.737
  257DMC      H 2742   2.412   0.336   0.243
  257DMC      H 2743   2.422   0.226   0.382
  257DMC      H 2744   2.262   0.274   0.314
  258DMC      C 2745   2.855   3.238   2.014
  258DMC      O 2746   2.973   3.212   1.937
  258DMC      C 2747   3.063   3.313   1.940
  258DMC      O 2748   3.051   3.419   1.999
  258DMC      O 2749   3.170   3.276   1.864
  258DMC      C 2750   3.273   3.374   1.858
  258DMC      H 2751   2.802   3.326   1.975
  258DMC      H 2752   2.789   3.151   2.006
  258DMC      H 2753   2.880   3.253   2.119
  258DMC      H 2754   3.353   3.336   1.794
  258DMC      H 2755   3.235   3.467   1.812
  258DMC      H 2756   3.313   3.394   1.957
  259DMC      C 2757   2.272   3.220   3.419
  259DMC      O 2758   2.351   3.280   3.316
  259DMC      C 2759   2.340   3.219   3.195
  259DMC      O 2760   2.271   3.121   3.171
  259DMC      O 2761   2.419   3.285   3.107
  259DMC      C 2762   2.416   3.231   2.976
  259DMC      H 2763   2.303   3.116   3.436
  259DMC      H 2764   2.287   3.276   3.511
  259DMC      H 2765   2.166   3.224   3.393
  259DMC      H 2766   2.483   3.290   2.912
  259DMC      H 2767   2.453   3.127   2.976
  259DMC      H 2768   2.315   3.235   2.934
  260DMC      C 2769   1.828   0.936   3.185
  260DMC      O 2770   1.755   0.956   3.307
  260DMC      C 2771   1.665   0.858   3.333
  260DMC      O 2772   1.643   0.760   3.264
  260DMC      O 2773   1.603   0.888   3.451
  260DMC      C 2774   1.506   0.793   3.490
  260DMC      H 2775   1.760   0.934   3.099
  260DMC      H 2776   1.898   1.019   3.172
  260DMC      H 2777   1.885   0.843   3.189
  260DMC      H 2778   1.462   0.827   3.585
  260DMC      H 2779   1.425   0.787   3.415
  260DMC      H 2780   1.551   0.695   3.506
  261DMC      C 2781   2.925   2.171   0.016
  261DMC      O 2782   3.068   2.169   0.028
  261DMC      C 2783   3.114   2.074   0.113
  261DMC      O 2784   3.046   1.995   0.177
  261DMC      O 2785   3.250   2.082   0.115
  261DMC      C 2786   3.311   1.987   0.201
  261DMC      H 2787   2.878   2.192   0.113
  261DMC      H 2788   2.897   2.250  -0.054
  261DMC      H 2789   2.888   2.076  -0.023
  261DMC      H 2790   3.420   2.003   0.197
  261DMC      H 2791   3.279   2.003   0.305
  261DMC      H 2792   3.289   1.886   0.169
  262DMC      C 2793   3.174   1.600   2.341
  262DMC      O 2794   3.252   1.532   2.242
  262DMC      C 2795   3.181   1.489   2.136
  262DMC      O 2796   3.060   1.504   2.120
  262DMC      O 2797   3.265   1.427   2.050
  262DMC      C 2798   3.202   1.377   1.933
  262DMC      H 2799   3.097   1.534   2.382
  262DMC      H 2800   3.240   1.630   2.423
  262DMC      H 2801   3.129   1.690   2.299
  262DMC      H 2802   3.278   1.328   1.871
  262DMC      H 2803   3.126   1.302   1.959
  262DMC      H 2804   3.158   1.459   1.875
  263DMC      C 2805   3.388   0.664   1.114
  263DMC      O 2806   3.454   0.689   0.989
  263DMC      C 2807   3.395   0.629   0.883
  263DMC      O 2808   3.295   0.559   0.887
  263DMC      O 2809   3.466   0.660   0.771
  263DMC      C 2810   3.415   0.602   0.653
  263DMC      H 2811   3.388   0.557   1.137
  263DMC      H 2812   3.443   0.717   1.192
  263DMC      H 2813   3.286   0.703   1.111
  263DMC      H 2814   3.479   0.633   0.569
  263DMC      H 2815   3.417   0.493   0.659
  263DMC      H 2816   3.314   0.639   0.633
  264DMC      C 2817   1.761   3.693   1.462
  264DMC      O 2818   1.783   3.734   1.597
  264DMC      C 2819   1.712   3.662   1.688
  264DMC      O 2820   1.635   3.571   1.662
  264DMC      O 2821   1.741   3.710   1.812
  264DMC      C 2822   1.672   3.643   1.916
  264DMC      H 2823   1.656   3.706   1.433
  264DMC      H 2824   1.823   3.756   1.397
  264DMC      H 2825   1.792   3.589   1.447
  264DMC      H 2826   1.701   3.689   2.011
  264DMC      H 2827   1.563   3.655   1.905
  264DMC      H 2828   1.700   3.537   1.919
  265DMC      C 2829   1.385   1.031   1.505
  265DMC      O 2830   1.404   1.091   1.633
  265DMC      C 2831   1.289   1.117   1.699
  265DMC      O 2832   1.176   1.093   1.659
  265DMC      O 2833   1.320   1.173   1.819
  265DMC      C 2834   1.207   1.205   1.898
  265DMC      H 2835   1.328   1.097   1.439
  265DMC      H 2836   1.483   1.014   1.460
  265DMC      H 2837   1.335   0.934   1.515
  265DMC      H 2838   1.242   1.251   1.992
  265DMC      H 2839   1.143   1.279   1.847
  265DMC      H 2840   1.150   1.115   1.923
  266DMC      C 2841   1.057   1.983   2.193
  266DMC      O 2842   1.060   2.008   2.052
  266DMC      C 2843   0.980   1.925   1.981
  266DMC      O 2844   0.910   1.835   2.027
  266DMC      O 2845   0.991   1.958   1.849
  266DMC      C 2846   0.912   1.878   1.763
  266DMC      H 2847   1.092   1.882   2.216
  266DMC      H 2848   1.124   2.055   2.242
  266DMC      H 2849   0.956   1.998   2.233
  266DMC      H 2850   0.928   1.912   1.660
  266DMC      H 2851   0.943   1.772   1.769
  266DMC      H 2852   0.806   1.888   1.787
  267DMC      C 2853   0.823   0.673   0.671
  267DMC      O 2854   0.782   0.793   0.737
  267DMC      C 2855   0.811   0.796   0.869
  267DMC      O 2856   0.866   0.706   0.932
  267DMC      O 2857   0.768   0.914   0.920
  267DMC      C 2858   0.792   0.929   1.059
  267DMC      H 2859   0.771   0.586   0.714
  267DMC      H 2860   0.795   0.681   0.565
  267DMC      H 2861   0.931   0.660   0.677
  267DMC      H 2862   0.753   1.027   1.090
  267DMC      H 2863   0.739   0.852   1.116
  267DMC      H 2864   0.899   0.926   1.080
  268DMC      C 2865   2.426   2.935   3.584
  268DMC      O 2866   2.350   2.843   3.505
  268DMC      C 2867   2.223   2.824   3.549
  268DMC      O 2868   2.173   2.878   3.647
  268DMC      O 2869   2.161   2.736   3.467
  268DMC      C 2870   2.027   2.708   3.503
  268DMC      H 2871   2.436   2.898   3.687
  268DMC      H 2872   2.526   2.943   3.540
  268DMC      H 2873   2.380   3.034   3.583
  268DMC      H 2874   1.987   2.635   3.431
  268DMC      H 2875   2.023   2.662   3.603
  268DMC      H 2876   1.967   2.798   3.499
  269DMC      C 2877   0.355   1.888   2.139
  269DMC      O 2878   0.415   1.969   2.240
  269DMC      C 2879   0.524   2.038   2.199
  269DMC      O 2880   0.573   2.034   2.087
  269DMC      O 2881   0.570   2.112   2.303
  269DMC      C 2882   0.685   2.188   2.272
  269DMC      H 2883   0.426   1.811   2.104
  269DMC      H 2884   0.269   1.837   2.182
  269DMC      H 2885   0.322   1.949   2.055
  269DMC      H 2886   0.715   2.243   2.363
  269DMC      H 2887   0.769   2.123   2.244
  269DMC      H 2888   0.664   2.260   2.193
  270DMC      C 2889   2.638   2.461   0.501
  270DMC      O 2890   2.698   2.444   0.629
  270DMC      C 2891   2.629   2.501   0.730
  270DMC      O 2892   2.524   2.563   0.719
  270DMC      O 2893   2.695   2.477   0.846
  270DMC      C 2894   2.633   2.532   0.961
  270DMC      H 2895   2.631   2.568   0.475
  270DMC      H 2896   2.700   2.412   0.426
  270DMC      H 2897   2.539   2.415   0.498
  270DMC      H 2898   2.695   2.508   1.049
  270DMC      H 2899   2.627   2.642   0.953
  270DMC      H 2900   2.534   2.489   0.975
  271DMC      C 2901   0.853   1.218   0.746
  271DMC      O 2902   0.736   1.208   0.828
  271DMC      C 2903   0.658   1.102   0.799
  271DMC      O 2904   0.679   1.019   0.712
  271DMC      O 2905   0.551   1.104   0.883
  271DMC      C 2906   0.460   0.997   0.862
  271DMC      H 2907   0.826   1.230   0.641
  271DMC      H 2908   0.910   1.306   0.777
  271DMC      H 2909   0.917   1.130   0.759
  271DMC      H 2910   0.378   1.008   0.934
  271DMC      H 2911   0.417   1.002   0.761
  271DMC      H 2912   0.509   0.901   0.880
  272DMC      C 2913   0.855   3.017   1.181
  272DMC      O 2914   0.878   2.893   1.114
  272DMC      C 2915   0.765   2.825   1.084
  272DMC      O 2916   0.651   2.860   1.110
  272DMC      O 2917   0.800   2.710   1.021
  272DMC      C 2918   0.690   2.629   0.984
  272DMC      H 2919   0.804   3.001   1.277
  272DMC      H 2920   0.951   3.065   1.200
  272DMC      H 2921   0.796   3.084   1.118
  272DMC      H 2922   0.728   2.538   0.935
  272DMC      H 2923   0.634   2.597   1.073
  272DMC      H 2924   0.625   2.681   0.914
  273DMC      C 2925   0.989   1.718   1.164
  273DMC      O 2926   0.887   1.801   1.220
  273DMC      C 2927   0.867   1.917   1.151
  273DMC      O 2928   0.928   1.952   1.051
  273DMC      O 2929   0.769   1.987   1.213
  273DMC      C 2930   0.739   2.111   1.151
  273DMC      H 2931   1.085   1.769   1.164
  273DMC      H 2932   0.997   1.628   1.226
  273DMC      H 2933   0.962   1.687   1.062
  273DMC      H 2934   0.659   2.160   1.209
  273DMC      H 2935   0.827   2.177   1.152
  273DMC      H 2936   0.703   2.095   1.049
  274DMC      C 2937   0.943   0.703   2.959
  274DMC      O 2938   0.849   0.760   3.051
  274DMC      C 2939   0.857   0.708   3.176
  274DMC      O 2940   0.933   0.620   3.212
  274DMC      O 2941   0.764   0.771   3.253
  274DMC      C 2942   0.762   0.724   3.388
  274DMC      H 2943   0.924   0.596   2.947
  274DMC      H 2944   0.929   0.752   2.862
  274DMC      H 2945   1.045   0.721   2.992
  274DMC      H 2946   0.684   0.780   3.441
  274DMC      H 2947   0.736   0.618   3.391
  274DMC      H 2948   0.857   0.743   3.436
  275DMC      C 2949   0.253   3.770   2.217
  275DMC      O 2950   0.130   3.828   2.263
  275DMC      C 2951   0.085   3.774   2.379
  275DMC      O 2952   0.139   3.685   2.442
  275DMC      O 2953  -0.031   3.837   2.412
  275DMC      C 2954  -0.089   3.790   2.532
  275DMC      H 2955   0.241   3.663   2.197
  275DMC      H 2956   0.282   3.819   2.124
  275DMC      H 2957   0.333   3.786   2.290
  275DMC      H 2958  -0.182   3.846   2.549
  275DMC      H 2959  -0.115   3.683   2.523
  275DMC      H 2960  -0.023   3.807   2.616
  276DMC      C 2961   3.511  -0.076   2.967
  276DMC      O 2962   3.520   0.061   2.923
  276DMC      C 2963   3.399   0.118   2.903
  276DMC      O 2964   3.290   0.065   2.917
  276DMC      O 2965   3.420   0.247   2.863
  276DMC      C 2966   3.300   0.319   2.837
  276DMC      H 2967   3.462  -0.138   2.891
  276DMC      H 2968   3.613  -0.113   2.981
  276DMC      H 2969   3.459  -0.083   3.062
  276DMC      H 2970   3.328   0.420   2.805
  276DMC      H 2971   3.244   0.272   2.755
  276DMC      H 2972   3.240   0.326   2.927
  277DMC      C 2973   2.819   2.506   1.793
  277DMC      O 2974   2.766   2.570   1.677
  277DMC      C 2975   2.708   2.690   1.702
  277DMC      O 2976   2.698   2.743   1.812
  277DMC      O 2977   2.663   2.741   1.584
  277DMC      C 2978   2.599   2.866   1.597
  277DMC      H 2979   2.740   2.485   1.865
  277DMC      H 2980   2.864   2.411   1.763
  277DMC      H 2981   2.897   2.567   1.839
  277DMC      H 2982   2.565   2.898   1.498
  277DMC      H 2983   2.510   2.858   1.662
  277DMC      H 2984   2.668   2.941   1.636
  278DMC      C 2985   0.284   2.793   3.742
  278DMC      O 2986   0.209   2.737   3.634
  278DMC      C 2987   0.286   2.681   3.537
  278DMC      O 2988   0.408   2.677   3.537
  278DMC      O 2989   0.204   2.631   3.441
  278DMC      C 2990   0.273   2.569   3.333
  278DMC      H 2991   0.349   2.874   3.706
  278DMC      H 2992   0.213   2.835   3.814
  278DMC      H 2993   0.343   2.717   3.792
  278DMC      H 2994   0.199   2.533   3.261
  278DMC      H 2995   0.337   2.643   3.282
  278DMC      H 2996   0.332   2.484   3.369
  279DMC      C 2997   0.624   2.587   3.368
  279DMC      O 2998   0.683   2.559   3.240
  279DMC      C 2999   0.642   2.642   3.141
  279DMC      O 3000   0.561   2.733   3.153
  279DMC      O 3001   0.705   2.606   3.027
  279DMC      C 3002   0.669   2.685   2.914
  279DMC      H 3003   0.515   2.575   3.363
  279DMC      H 3004   0.664   2.516   3.440
  279DMC      H 3005   0.650   2.688   3.401
  279DMC      H 3006   0.725   2.648   2.827
  279DMC      H 3007   0.562   2.676   2.893
  279DMC      H 3008   0.697   2.790   2.931
  280DMC      C 3009   2.248   0.908   2.919
  280DMC      O 3010   2.248   1.010   3.020
  280DMC      C 3011   2.286   0.966   3.142
  280DMC      O 3012   2.319   0.851   3.170
  280DMC      O 3013   2.282   1.071   3.228
  280DMC      C 3014   2.320   1.038   3.361
  280DMC      H 3015   2.178   0.827   2.944
  280DMC      H 3016   2.216   0.953   2.824
  280DMC      H 3017   2.349   0.868   2.905
  280DMC      H 3018   2.312   1.129   3.422
  280DMC      H 3019   2.251   0.963   3.403
  280DMC      H 3020   2.423   1.003   3.363
  281DMC      C 3021   2.171   3.080   2.839
  281DMC      O 3022   2.125   3.205   2.893
  281DMC      C 3023   2.024   3.261   2.821
  281DMC      O 3024   1.974   3.214   2.720
  281DMC      O 3025   1.989   3.377   2.882
  281DMC      C 3026   1.884   3.446   2.816
  281DMC      H 3027   2.211   3.094   2.738
  281DMC      H 3028   2.252   3.043   2.904
  281DMC      H 3029   2.091   3.006   2.839
  281DMC      H 3030   1.864   3.539   2.872
  281DMC      H 3031   1.914   3.474   2.714
  281DMC      H 3032   1.793   3.386   2.815
  282DMC      C 3033   3.785   2.057   1.918
  282DMC      O 3034   3.814   2.120   1.793
  282DMC      C 3035   3.754   2.061   1.687
  282DMC      O 3036   3.682   1.963   1.691
  282DMC      O 3037   3.789   2.130   1.575
  282DMC      C 3038   3.733   2.078   1.456
  282DMC      H 3039   3.820   1.953   1.918
  282DMC      H 3040   3.837   2.111   1.997
  282DMC      H 3041   3.678   2.060   1.939
  282DMC      H 3042   3.768   2.140   1.372
  282DMC      H 3043   3.767   1.975   1.438
  282DMC      H 3044   3.624   2.083   1.459
  283DMC      C 3045   1.766   1.223   1.623
  283DMC      O 3046   1.838   1.211   1.500
  283DMC      C 3047   1.850   1.084   1.455
  283DMC      O 3048   1.807   0.984   1.511
  283DMC      O 3049   1.920   1.087   1.338
  283DMC      C 3050   1.940   0.958   1.281
  283DMC      H 3051   1.817   1.168   1.703
  283DMC      H 3052   1.761   1.329   1.650
  283DMC      H 3053   1.664   1.186   1.611
  283DMC      H 3054   1.997   0.971   1.188
  283DMC      H 3055   1.999   0.895   1.349
  283DMC      H 3056   1.844   0.912   1.257
  284DMC      C 3057   0.481   3.251   1.103
  284DMC      O 3058   0.580   3.242   1.000
  284DMC      C 3059   0.531   3.260   0.876
  284DMC      O 3060   0.414   3.281   0.847
  284DMC      O 3061   0.634   3.250   0.787
  284DMC      C 3062   0.596   3.266   0.652
  284DMC      H 3063   0.405   3.173   1.090
  284DMC      H 3064   0.530   3.235   1.200
  284DMC      H 3065   0.435   3.349   1.104
  284DMC      H 3066   0.685   3.256   0.589
  284DMC      H 3067   0.524   3.188   0.622
  284DMC      H 3068   0.554   3.366   0.636
  285DMC      C 3069   3.527  -0.101   0.399
  285DMC      O 3070   3.624   0.004   0.383
  285DMC      C 3071   3.613   0.101   0.476
  285DMC      O 3072   3.531   0.106   0.566
  285DMC      O 3073   3.710   0.194   0.452
  285DMC      C 3074   3.710   0.303   0.542
  285DMC      H 3075   3.425  -0.062   0.388
  285DMC      H 3076   3.544  -0.175   0.320
  285DMC      H 3077   3.539  -0.151   0.495
  285DMC      H 3078   3.790   0.372   0.514
  285DMC      H 3079   3.615   0.358   0.536
  285DMC      H 3080   3.728   0.268   0.644
  286DMC      C 3081   1.541   0.937   2.787
  286DMC      O 3082   1.625   0.937   2.671
  286DMC      C 3083   1.745   0.878   2.691
  286DMC      O 3084   1.785   0.830   2.796
  286DMC      O 3085   1.815   0.884   2.574
  286DMC      C 3086   1.944   0.826   2.582
  286DMC      H 3087   1.588   0.994   2.868
  286DMC      H 3088   1.447   0.986   2.761
  286DMC      H 3089   1.519   0.835   2.819
  286DMC      H 3090   1.992   0.836   2.483
  286DMC      H 3091   2.006   0.880   2.655
  286DMC      H 3092   1.938   0.720   2.606
  287DMC      C 3093   1.370   3.715   2.366
  287DMC      O 3094   1.322   3.764   2.492
  287DMC      C 3095   1.342   3.679   2.595
  287DMC      O 3096   1.396   3.569   2.588
  287DMC      O 3097   1.293   3.736   2.708
  287DMC      C 3098   1.308   3.657   2.824
  287DMC      H 3099   1.319   3.622   2.338
  287DMC      H 3100   1.349   3.790   2.289
  287DMC      H 3101   1.478   3.699   2.370
  287DMC      H 3102   1.264   3.711   2.909
  287DMC      H 3103   1.253   3.562   2.813
  287DMC      H 3104   1.413   3.639   2.845
  288DMC      C 3105   0.246   0.900   2.509
  288DMC      O 3106   0.156   0.800   2.462
  288DMC      C 3107   0.032   0.808   2.515
  288DMC      O 3108  -0.005   0.890   2.597
  288DMC      O 3109  -0.043   0.708   2.462
  288DMC      C 3110  -0.177   0.705   2.511
  288DMC      H 3111   0.261   0.891   2.617
  288DMC      H 3112   0.343   0.886   2.460
  288DMC      H 3113   0.210   1.000   2.484
  288DMC      H 3114  -0.229   0.621   2.463
  288DMC      H 3115  -0.178   0.688   2.619
  288DMC      H 3116  -0.229   0.797   2.485
  289DMC      C 3117   3.467   1.594   0.036
  289DMC      O 3118   3.430   1.457   0.015
  289DMC      C 3119   3.438   1.381   0.127
  289DMC      O 3120   3.473   1.420   0.237
  289DMC      O 3121   3.401   1.255   0.094
  289DMC      C 3122   3.405   1.164   0.204
  289DMC      H 3123   3.571   1.602   0.069
  289DMC      H 3124   3.457   1.647  -0.059
  289DMC      H 3125   3.400   1.641   0.108
  289DMC      H 3126   3.375   1.065   0.167
  289DMC      H 3127   3.508   1.155   0.243
  289DMC      H 3128   3.336   1.195   0.282
  290DMC      C 3129   1.157   0.795   2.217
  290DMC      O 3130   1.136   0.936   2.203
  290DMC      C 3131   1.038   0.967   2.115
  290DMC      O 3132   0.971   0.888   2.050
  290DMC      O 3133   1.027   1.103   2.110
  290DMC      C 3134   0.927   1.149   2.021
  290DMC      H 3135   1.188   0.751   2.122
  290DMC      H 3136   1.237   0.780   2.290
  290DMC      H 3137   1.067   0.746   2.254
  290DMC      H 3138   0.926   1.259   2.024
  290DMC      H 3139   0.951   1.119   1.918
  290DMC      H 3140   0.828   1.113   2.050
  291DMC      C 3141   0.267   3.623   0.726
  291DMC      O 3142   0.349   3.705   0.809
  291DMC      C 3143   0.366   3.656   0.934
  291DMC      O 3144   0.316   3.553   0.978
  291DMC      O 3145   0.446   3.742   1.003
  291DMC      C 3146   0.470   3.702   1.137
  291DMC      H 3147   0.166   3.615   0.767
  291DMC      H 3148   0.260   3.671   0.627
  291DMC      H 3149   0.311   3.524   0.713
  291DMC      H 3150   0.535   3.777   1.184
  291DMC      H 3151   0.376   3.697   1.194
  291DMC      H 3152   0.522   3.605   1.140
  292DMC      C 3153   1.910   1.566   0.878
  292DMC      O 3154   2.038   1.530   0.824
  292DMC      C 3155   2.031   1.448   0.717
  292DMC      O 3156   1.929   1.403   0.667
  292DMC      O 3157   2.158   1.422   0.675
  292DMC      C 3158   2.165   1.335   0.563
  292DMC      H 3159   1.856   1.477   0.912
  292DMC      H 3160   1.925   1.632   0.963
  292DMC      H 3161   1.850   1.619   0.803
  292DMC      H 3162   2.270   1.320   0.538
  292DMC      H 3163   2.121   1.237   0.587
  292DMC      H 3164   2.114   1.380   0.477
  293DMC      C 3165   1.748   2.331   1.059
  293DMC      O 3166   1.746   2.346   0.916
  293DMC      C 3167   1.855   2.408   0.866
  293DMC      O 3168   1.949   2.451   0.931
  293DMC      O 3169   1.841   2.416   0.731
  293DMC      C 3170   1.949   2.480   0.665
  293DMC      H 3171   1.752   2.429   1.108
  293DMC      H 3172   1.657   2.280   1.090
  293DMC      H 3173   1.834   2.271   1.090
  293DMC      H 3174   1.928   2.482   0.558
  293DMC      H 3175   1.959   2.584   0.700
  293DMC      H 3176   2.042   2.425   0.682
  294DMC      C 3177   0.470   3.129   2.386
  294DMC      O 3178   0.472   3.201   2.263
  294DMC      C 3179   0.506   3.125   2.156
  294DMC      O 3180   0.534   3.006   2.158
  294DMC      O 3181   0.504   3.205   2.045
  294DMC      C 3182   0.538   3.137   1.925
  294DMC      H 3183   0.569   3.088   2.409
  294DMC      H 3184   0.442   3.198   2.466
  294DMC      H 3185   0.396   3.048   2.383
  294DMC      H 3186   0.535   3.209   1.843
  294DMC      H 3187   0.641   3.097   1.931
  294DMC      H 3188   0.467   3.057   1.905
  295DMC      C 3189   3.012   2.199   3.002
  295DMC      O 3190   2.879   2.199   2.948
  295DMC      C 3191   2.782   2.185   3.042
  295DMC      O 3192   2.800   2.173   3.162
  295DMC      O 3193   2.662   2.187   2.979
  295DMC      C 3194   2.551   2.173   3.066
  295DMC      H 3195   3.033   2.104   3.052
  295DMC      H 3196   3.083   2.211   2.919
  295DMC      H 3197   3.026   2.282   3.071
  295DMC      H 3198   2.459   2.175   3.006
  295DMC      H 3199   2.555   2.076   3.118
  295DMC      H 3200   2.548   2.256   3.138
  296DMC      C 3201   1.002   2.486   3.198
  296DMC      O 3202   0.988   2.477   3.055
  296DMC      C 3203   1.011   2.594   2.991
  296DMC      O 3204   1.040   2.701   3.044
  296DMC      O 3205   0.995   2.573   2.858
  296DMC      C 3206   1.015   2.689   2.778
  296DMC      H 3207   0.930   2.557   3.240
  296DMC      H 3208   0.983   2.387   3.240
  296DMC      H 3209   1.104   2.515   3.225
  296DMC      H 3210   0.999   2.662   2.673
  296DMC      H 3211   0.942   2.767   2.805
  296DMC      H 3212   1.117   2.726   2.790
  297DMC      C 3213   3.102   2.087   2.385
  297DMC      O 3214   2.967   2.105   2.428
  297DMC      C 3215   2.955   2.144   2.557
  297DMC      O 3216   3.048   2.161   2.635
  297DMC      O 3217   2.823   2.159   2.586
  297DMC      C 3218   2.797   2.198   2.719
  297DMC      H 3219   3.151   2.008   2.443
  297DMC      H 3220   3.101   2.057   2.280
  297DMC      H 3221   3.158   2.180   2.393
  297DMC      H 3222   2.689   2.207   2.732
  297DMC      H 3223   2.834   2.122   2.790
  297DMC      H 3224   2.842   2.296   2.740
  298DMC      C 3225   2.218   2.295   1.693
  298DMC      O 3226   2.291   2.269   1.573
  298DMC      C 3227   2.220   2.295   1.460
  298DMC      O 3228   2.105   2.336   1.455
  298DMC      O 3229   2.299   2.268   1.353
  298DMC      C 3230   2.237   2.290   1.228
  298DMC      H 3231   2.129   2.231   1.699
  298DMC      H 3232   2.283   2.271   1.778
  298DMC      H 3233   2.190   2.400   1.700
  298DMC      H 3234   2.308   2.264   1.149
  298DMC      H 3235   2.149   2.225   1.217
  298DMC      H 3236   2.209   2.395   1.217
  299DMC      C 3237   2.957   2.773   0.855
  299DMC      O 3238   3.006   2.874   0.766
  299DMC      C 3239   2.919   2.977   0.748
  299DMC      O 3240   2.809   2.988   0.800
  299DMC      O 3241   2.977   3.066   0.663
  299DMC      C 3242   2.896   3.179   0.635
  299DMC      H 3243   2.865   2.728   0.816
  299DMC      H 3244   3.033   2.695   0.863
  299DMC      H 3245   2.939   2.814   0.955
  299DMC      H 3246   2.950   3.244   0.565
  299DMC      H 3247   2.802   3.149   0.587
  299DMC      H 3248   2.876   3.235   0.726
  300DMC      C 3249   1.615   1.467   0.764
  300DMC      O 3250   1.522   1.409   0.672
  300DMC      C 3251   1.530   1.460   0.547
  300DMC      O 3252   1.606   1.548   0.510
  300DMC      O 3253   1.438   1.397   0.469
  300DMC      C 3254   1.435   1.443   0.335
  300DMC      H 3255   1.596   1.575   0.775
  300DMC      H 3256   1.601   1.419   0.861
  300DMC      H 3257   1.718   1.450   0.731
  300DMC      H 3258   1.358   1.386   0.281
  300DMC      H 3259   1.409   1.549   0.330
  300DMC      H 3260   1.531   1.424   0.286
  301DMC      C 3261   1.140   0.171  -0.176
  301DMC      O 3262   1.067   0.120  -0.064
  301DMC      C 3263   1.140   0.117   0.050
  301DMC      O 3264   1.256   0.152   0.063
  301DMC      O 3265   1.061   0.067   0.149
  301DMC      C 3266   1.126   0.058   0.275
  301DMC      H 3267   1.226   0.108  -0.199
  301DMC      H 3268   1.073   0.170  -0.263
  301DMC      H 3269   1.171   0.274  -0.159
  301DMC      H 3270   1.054   0.016   0.348
  301DMC      H 3271   1.212  -0.010   0.270
  301DMC      H 3272   1.156   0.156   0.310
  302DMC      C 3273   1.976   3.632   2.138
  302DMC      O 3274   1.950   3.698   2.262
  302DMC      C 3275   1.943   3.615   2.368
  302DMC      O 3276   1.956   3.493   2.365
  302DMC      O 3277   1.920   3.690   2.479
  302DMC      C 3278   1.909   3.613   2.598
  302DMC      H 3279   1.895   3.562   2.114
  302DMC      H 3280   1.980   3.707   2.058
  302DMC      H 3281   2.072   3.580   2.141
  302DMC      H 3282   1.889   3.682   2.682
  302DMC      H 3283   1.825   3.543   2.592
  302DMC      H 3284   2.003   3.561   2.619
  303DMC      C 3285   3.520   2.748   2.911
  303DMC      O 3286   3.501   2.889   2.933
  303DMC      C 3287   3.616   2.960   2.928
  303DMC      O 3288   3.728   2.915   2.909
  303DMC      O 3289   3.585   3.091   2.949
  303DMC      C 3290   3.698   3.177   2.947
  303DMC      H 3291   3.584   2.705   2.989
  303DMC      H 3292   3.422   2.700   2.917
  303DMC      H 3293   3.562   2.730   2.812
  303DMC      H 3294   3.663   3.280   2.966
  303DMC      H 3295   3.769   3.150   3.027
  303DMC      H 3296   3.747   3.175   2.850
  304DMC      C 3297   2.077   1.989   0.036
  304DMC      O 3298   2.125   2.018   0.168
  304DMC      C 3299   2.252   2.065   0.170
  304DMC      O 3300   2.324   2.082   0.073
  304DMC      O 3301   2.285   2.090   0.300
  304DMC      C 3302   2.417   2.140   0.316
  304DMC      H 3303   2.138   1.911  -0.011
  304DMC      H 3304   1.974   1.952   0.045
  304DMC      H 3305   2.076   2.078  -0.026
  304DMC      H 3306   2.435   2.155   0.423
  304DMC      H 3307   2.491   2.067   0.280
  304DMC      H 3308   2.429   2.235   0.265
  305DMC      C 3309   0.706   0.393   1.973
  305DMC      O 3310   0.749   0.348   2.102
  305DMC      C 3311   0.725   0.437   2.201
  305DMC      O 3312   0.673   0.547   2.188
  305DMC      O 3313   0.768   0.383   2.318
  305DMC      C 3314   0.749   0.467   2.431
  305DMC      H 3315   0.760   0.484   1.944
  305DMC      H 3316   0.729   0.314   1.900
  305DMC      H 3317   0.598   0.410   1.972
  305DMC      H 3318   0.789   0.415   2.519
  305DMC      H 3319   0.806   0.561   2.419
  305DMC      H 3320   0.643   0.487   2.446
  306DMC      C 3321   0.678   1.225   1.434
  306DMC      O 3322   0.771   1.329   1.465
  306DMC      C 3323   0.728   1.413   1.562
  306DMC      O 3324   0.620   1.407   1.620
  306DMC      O 3325   0.824   1.506   1.583
  306DMC      C 3326   0.791   1.602   1.683
  306DMC      H 3327   0.584   1.267   1.396
  306DMC      H 3328   0.722   1.162   1.355
  306DMC      H 3329   0.659   1.162   1.521
  306DMC      H 3330   0.875   1.673   1.691
  306DMC      H 3331   0.701   1.658   1.653
  306DMC      H 3332   0.777   1.553   1.779
  307DMC      C 3333   1.500   0.232   3.526
  307DMC      O 3334   1.495   0.103   3.465
  307DMC      C 3335   1.381   0.080   3.395
  307DMC      O 3336   1.288   0.159   3.382
  307DMC      O 3337   1.388  -0.045   3.342
  307DMC      C 3338   1.274  -0.081   3.266
  307DMC      H 3339   1.418   0.245   3.598
  307DMC      H 3340   1.595   0.241   3.580
  307DMC      H 3341   1.497   0.311   3.450
  307DMC      H 3342   1.289  -0.183   3.228
  307DMC      H 3343   1.184  -0.081   3.329
  307DMC      H 3344   1.262  -0.014   3.180
  308DMC      C 3345   2.240   3.446   2.378
  308DMC      O 3346   2.351   3.451   2.468
  308DMC      C 3347   2.316   3.447   2.599
  308DMC      O 3348   2.202   3.440   2.642
  308DMC      O 3349   2.429   3.452   2.673
  308DMC      C 3350   2.406   3.448   2.813
  308DMC      H 3351   2.174   3.532   2.393
  308DMC      H 3352   2.279   3.450   2.276
  308DMC      H 3353   2.185   3.353   2.390
  308DMC      H 3354   2.503   3.454   2.864
  308DMC      H 3355   2.346   3.535   2.845
  308DMC      H 3356   2.357   3.355   2.842
  309DMC      C 3357   1.270   3.139   0.975
  309DMC      O 3358   1.266   3.130   1.117
  309DMC      C 3359   1.276   3.249   1.180
  309DMC      O 3360   1.288   3.358   1.126
  309DMC      O 3361   1.270   3.227   1.314
  309DMC      C 3362   1.279   3.345   1.392
  309DMC      H 3363   1.366   3.182   0.942
  309DMC      H 3364   1.261   3.038   0.933
  309DMC      H 3365   1.187   3.199   0.937
  309DMC      H 3366   1.274   3.317   1.498
  309DMC      H 3367   1.376   3.395   1.375
  309DMC      H 3368   1.196   3.413   1.370
  310DMC      C 3369   2.246   2.255   2.154
  310DMC      O 3370   2.270   2.321   2.279
  310DMC      C 3371   2.310   2.238   2.378
  310DMC      O 3372   2.325   2.117   2.368
  310DMC      O 3373   2.330   2.312   2.490
  310DMC      C 3374   2.372   2.236   2.602
  310DMC      H 3375   2.166   2.181   2.164
  310DMC      H 3376   2.214   2.330   2.081
  310DMC      H 3377   2.337   2.207   2.117
  310DMC      H 3378   2.384   2.305   2.687
  310DMC      H 3379   2.296   2.162   2.629
  310DMC      H 3380   2.468   2.188   2.582
  311DMC      C 3381   2.854   1.743   4.022
  311DMC      O 3382   2.921   1.717   3.898
  311DMC      C 3383   2.838   1.708   3.792
  311DMC      O 3384   2.716   1.718   3.795
  311DMC      O 3385   2.912   1.683   3.681
  311DMC      C 3386   2.836   1.671   3.562
  311DMC      H 3387   2.785   1.662   4.046
  311DMC      H 3388   2.930   1.750   4.101
  311DMC      H 3389   2.801   1.838   4.018
  311DMC      H 3390   2.905   1.650   3.479
  311DMC      H 3391   2.767   1.586   3.570
  311DMC      H 3392   2.782   1.763   3.541
  312DMC      C 3393   2.803   0.133   1.272
  312DMC      O 3394   2.842   0.108   1.408
  312DMC      C 3395   2.968   0.147   1.436
  312DMC      O 3396   3.047   0.200   1.358
  312DMC      O 3397   2.993   0.119   1.567
  312DMC      C 3398   3.124   0.155   1.610
  312DMC      H 3399   2.867   0.078   1.203
  312DMC      H 3400   2.700   0.098   1.259
  312DMC      H 3401   2.806   0.240   1.251
  312DMC      H 3402   3.134   0.127   1.715
  312DMC      H 3403   3.200   0.100   1.552
  312DMC      H 3404   3.138   0.263   1.600
  313DMC      C 3405   3.551   3.577   3.908
  313DMC      O 3406   3.518   3.542   3.773
  313DMC      C 3407   3.400   3.593   3.731
  313DMC      O 3408   3.324   3.662   3.797
  313DMC      O 3409   3.380   3.554   3.602
  313DMC      C 3410   3.258   3.602   3.546
  313DMC      H 3411   3.475   3.538   3.977
  313DMC      H 3412   3.647   3.531   3.932
  313DMC      H 3413   3.560   3.685   3.919
  313DMC      H 3414   3.252   3.564   3.443
  313DMC      H 3415   3.172   3.562   3.602
  313DMC      H 3416   3.257   3.711   3.544
  314DMC      C 3417   0.839   0.330   3.673
  314DMC      O 3418   0.977   0.367   3.691
  314DMC      C 3419   0.996   0.501   3.695
  314DMC      O 3420   0.910   0.587   3.685
  314DMC      O 3421   1.129   0.524   3.712
  314DMC      C 3422   1.164   0.661   3.718
  314DMC      H 3423   0.801   0.368   3.578
  314DMC      H 3424   0.834   0.220   3.671
  314DMC      H 3425   0.779   0.365   3.756
  314DMC      H 3426   1.273   0.669   3.732
  314DMC      H 3427   1.137   0.712   3.624
  314DMC      H 3428   1.115   0.709   3.803
  315DMC      C 3429   2.962   2.570   1.277
  315DMC      O 3430   2.896   2.697   1.267
  315DMC      C 3431   2.762   2.688   1.252
  315DMC      O 3432   2.697   2.584   1.246
  315DMC      O 3433   2.711   2.814   1.244
  315DMC      C 3434   2.570   2.818   1.227
  315DMC      H 3435   2.946   2.511   1.186
  315DMC      H 3436   3.069   2.588   1.289
  315DMC      H 3437   2.926   2.515   1.364
  315DMC      H 3438   2.540   2.923   1.222
  315DMC      H 3439   2.541   2.769   1.134
  315DMC      H 3440   2.520   2.772   1.313
  316DMC      C 3441   3.527   0.535   3.433
  316DMC      O 3442   3.537   0.402   3.382
  316DMC      C 3443   3.421   0.332   3.389
  316DMC      O 3444   3.315   0.373   3.434
  316DMC      O 3445   3.443   0.208   3.338
  316DMC      C 3446   3.328   0.124   3.339
  316DMC      H 3447   3.500   0.534   3.539
  316DMC      H 3448   3.625   0.583   3.423
  316DMC      H 3449   3.454   0.593   3.376
  316DMC      H 3450   3.357   0.027   3.297
  316DMC      H 3451   3.295   0.107   3.443
  316DMC      H 3452   3.248   0.167   3.279
  317DMC      C 3453   2.840   0.277   2.024
  317DMC      O 3454   2.856   0.255   2.164
  317DMC      C 3455   2.885   0.367   2.234
  317DMC      O 3456   2.899   0.480   2.187
  317DMC      O 3457   2.897   0.334   2.365
  317DMC      C 3458   2.929   0.444   2.450
  317DMC      H 3459   2.933   0.315   1.980
  317DMC      H 3460   2.817   0.181   1.977
  317DMC      H 3461   2.757   0.345   2.004
  317DMC      H 3462   2.937   0.407   2.552
  317DMC      H 3463   3.025   0.488   2.421
  317DMC      H 3464   2.849   0.519   2.446
  318DMC      C 3465   3.196   0.576   2.179
  318DMC      O 3466   3.188   0.433   2.194
  318DMC      C 3467   3.249   0.388   2.307
  318DMC      O 3468   3.306   0.456   2.390
  318DMC      O 3469   3.234   0.253   2.310
  318DMC      C 3470   3.294   0.192   2.424
  318DMC      H 3471   3.300   0.608   2.171
  318DMC      H 3472   3.144   0.603   2.086
  318DMC      H 3473   3.146   0.626   2.261
  318DMC      H 3474   3.278   0.083   2.417
  318DMC      H 3475   3.403   0.210   2.425
  318DMC      H 3476   3.248   0.228   2.516
  319DMC      C 3477   2.636   0.989   3.603
  319DMC      O 3478   2.516   1.045   3.659
  319DMC      C 3479   2.533   1.096   3.783
  319DMC      O 3480   2.637   1.097   3.847
  319DMC      O 3481   2.414   1.147   3.824
  319DMC      C 3482   2.418   1.204   3.954
  319DMC      H 3483   2.672   0.905   3.664
  319DMC      H 3484   2.612   0.951   3.503
  319DMC      H 3485   2.713   1.065   3.593
  319DMC      H 3486   2.317   1.240   3.979
  319DMC      H 3487   2.445   1.127   4.029
  319DMC      H 3488   2.487   1.288   3.957
  320DMC      C 3489   3.370   3.473   2.944
  320DMC      O 3490   3.473   3.418   2.862
  320DMC      C 3491   3.429   3.368   2.744
  320DMC      O 3492   3.312   3.365   2.707
  320DMC      O 3493   3.536   3.320   2.676
  320DMC      C 3494   3.502   3.263   2.550
  320DMC      H 3495   3.297   3.396   2.972
  320DMC      H 3496   3.416   3.511   3.036
  320DMC      H 3497   3.320   3.556   2.894
  320DMC      H 3498   3.594   3.226   2.503
  320DMC      H 3499   3.435   3.177   2.563
  320DMC      H 3500   3.457   3.338   2.485
  321DMC      C 3501   3.443   2.609   0.471
  321DMC      O 3502   3.433   2.591   0.612
  321DMC      C 3503   3.548   2.550   0.671
  321DMC      O 3504   3.653   2.528   0.614
  321DMC      O 3505   3.525   2.537   0.804
  321DMC      C 3506   3.639   2.494   0.878
  321DMC      H 3507   3.469   2.515   0.421
  321DMC      H 3508   3.346   2.643   0.433
  321DMC      H 3509   3.517   2.686   0.447
  321DMC      H 3510   3.610   2.486   0.983
  321DMC      H 3511   3.671   2.394   0.844
  321DMC      H 3512   3.720   2.566   0.869
  322DMC      C 3513   3.952   2.848   2.183
  322DMC      O 3514   3.812   2.857   2.214
  322DMC      C 3515   3.732   2.803   2.120
  322DMC      O 3516   3.769   2.751   2.015
  322DMC      O 3517   3.603   2.816   2.161
  322DMC      C 3518   3.508   2.764   2.069
  322DMC      H 3519   3.975   2.903   2.091
  322DMC      H 3520   4.008   2.894   2.265
  322DMC      H 3521   3.983   2.744   2.174
  322DMC      H 3522   3.408   2.780   2.111
  322DMC      H 3523   3.514   2.816   1.973
  322DMC      H 3524   3.523   2.657   2.056
  323DMC      C 3525   0.578   0.035   2.511
  323DMC      O 3526   0.692   0.108   2.465
  323DMC      C 3527   0.810   0.062   2.513
  323DMC      O 3528   0.824  -0.032   2.590
  323DMC      O 3529   0.910   0.140   2.462
  323DMC      C 3530   1.039   0.102   2.506
  323DMC      H 3531   0.570   0.041   2.620
  323DMC      H 3532   0.489   0.079   2.467
  323DMC      H 3533   0.584  -0.070   2.479
  323DMC      H 3534   1.112   0.170   2.460
  323DMC      H 3535   1.048   0.111   2.615
  323DMC      H 3536   1.063   0.000   2.474
  324DMC      C 3537  -0.062   3.187   0.415
  324DMC      O 3538  -0.028   3.179   0.276
  324DMC      C 3539   0.101   3.211   0.249
  324DMC      O 3540   0.184   3.247   0.331
  324DMC      O 3541   0.121   3.199   0.115
  324DMC      C 3542   0.253   3.231   0.074
  324DMC      H 3543  -0.050   3.290   0.451
  324DMC      H 3544  -0.167   3.159   0.426
  324DMC      H 3545  -0.001   3.118   0.474
  324DMC      H 3546   0.259   3.219  -0.035
  324DMC      H 3547   0.276   3.336   0.098
  324DMC      H 3548   0.325   3.164   0.120
  325DMC      C 3549   2.796   2.162   2.138
  325DMC      O 3550   2.891   2.059   2.109
  325DMC      C 3551   2.936   2.060   1.982
  325DMC      O 3552   2.902   2.138   1.894
  325DMC      O 3553   3.026   1.959   1.967
  325DMC      C 3554   3.080   1.948   1.837
  325DMC      H 3555   2.707   2.150   2.075
  325DMC      H 3556   2.766   2.154   2.243
  325DMC      H 3557   2.840   2.261   2.123
  325DMC      H 3558   3.150   1.864   1.836
  325DMC      H 3559   3.001   1.928   1.764
  325DMC      H 3560   3.135   2.039   1.811
  326DMC      C 3561   1.894   1.795   0.784
  326DMC      O 3562   1.929   1.929   0.820
  326DMC      C 3563   2.051   1.967   0.775
  326DMC      O 3564   2.129   1.898   0.711
  326DMC      O 3565   2.072   2.096   0.815
  326DMC      C 3566   2.198   2.148   0.775
  326DMC      H 3567   1.965   1.723   0.827
  326DMC      H 3568   1.795   1.773   0.823
  326DMC      H 3569   1.891   1.783   0.675
  326DMC      H 3570   2.205   2.251   0.813
  326DMC      H 3571   2.280   2.090   0.820
  326DMC      H 3572   2.206   2.150   0.667
  327DMC      C 3573   2.523   2.325   1.336
  327DMC      O 3574   2.659   2.337   1.383
  327DMC      C 3575   2.716   2.218   1.412
  327DMC      O 3576   2.663   2.108   1.404
  327DMC      O 3577   2.843   2.242   1.454
  327DMC      C 3578   2.915   2.125   1.489
  327DMC      H 3579   2.460   2.280   1.414
  327DMC      H 3580   2.486   2.426   1.315
  327DMC      H 3581   2.519   2.267   1.245
  327DMC      H 3582   3.016   2.155   1.522
  327DMC      H 3583   2.866   2.073   1.573
  327DMC      H 3584   2.925   2.059   1.403
  328DMC      C 3585   0.668   3.817   3.884
  328DMC      O 3586   0.732   3.785   3.760
  328DMC      C 3587   0.647   3.784   3.654
  328DMC      O 3588   0.527   3.806   3.658
  328DMC      O 3589   0.719   3.753   3.543
  328DMC      C 3590   0.641   3.748   3.424
  328DMC      H 3591   0.591   3.742   3.909
  328DMC      H 3592   0.744   3.816   3.963
  328DMC      H 3593   0.624   3.917   3.881
  328DMC      H 3594   0.708   3.722   3.341
  328DMC      H 3595   0.564   3.670   3.432
  328DMC      H 3596   0.596   3.845   3.403
  329DMC      C 3597   0.464   1.372   2.890
  329DMC      O 3598   0.493   1.401   2.752
  329DMC      C 3599   0.487   1.293   2.672
  329DMC      O 3600   0.461   1.178   2.707
  329DMC      O 3601   0.516   1.332   2.545
  329DMC      C 3602   0.513   1.227   2.450
  329DMC      H 3603   0.537   1.301   2.931
  329DMC      H 3604   0.471   1.465   2.947
  329DMC      H 3605   0.363   1.333   2.901
  329DMC      H 3606   0.539   1.269   2.351
  329DMC      H 3607   0.589   1.151   2.474
  329DMC      H 3608   0.414   1.183   2.444
  330DMC      C 3609   2.500   2.035   2.747
  330DMC      O 3610   2.578   1.955   2.658
  330DMC      C 3611   2.547   1.973   2.527
  330DMC      O 3612   2.460   2.047   2.483
  330DMC      O 3613   2.627   1.892   2.453
  330DMC      C 3614   2.604   1.901   2.313
  330DMC      H 3615   2.393   2.010   2.739
  330DMC      H 3616   2.532   2.015   2.849
  330DMC      H 3617   2.515   2.142   2.727
  330DMC      H 3618   2.673   1.832   2.263
  330DMC      H 3619   2.502   1.869   2.289
  330DMC      H 3620   2.623   2.002   2.277
  331DMC      C 3621   3.694   3.060   2.541
  331DMC      O 3622   3.788   2.954   2.562
  331DMC      C 3623   3.736   2.848   2.628
  331DMC      O 3624   3.621   2.838   2.669
  331DMC      O 3625   3.834   2.754   2.641
  331DMC      C 3626   3.793   2.637   2.709
  331DMC      H 3627   3.658   3.100   2.637
  331DMC      H 3628   3.744   3.141   2.487
  331DMC      H 3629   3.609   3.026   2.481
  331DMC      H 3630   3.878   2.569   2.715
  331DMC      H 3631   3.761   2.661   2.812
  331DMC      H 3632   3.712   2.587   2.655
  332DMC      C 3633   1.095   1.982   3.116
  332DMC      O 3634   1.050   2.025   3.245
  332DMC      C 3635   1.097   1.951   3.347
  332DMC      O 3636   1.170   1.853   3.337
  332DMC      O 3637   1.048   2.002   3.463
  332DMC      C 3638   1.090   1.932   3.579
  332DMC      H 3639   1.061   1.879   3.096
  332DMC      H 3640   1.052   2.048   3.040
  332DMC      H 3641   1.203   1.988   3.109
  332DMC      H 3642   1.045   1.980   3.667
  332DMC      H 3643   1.055   1.827   3.576
  332DMC      H 3644   1.198   1.936   3.589
  333DMC      C 3645   1.915   1.047   1.880
  333DMC      O 3646   1.875   0.993   2.007
  333DMC      C 3647   1.863   1.087   2.104
  333DMC      O 3648   1.885   1.207   2.091
  333DMC      O 3649   1.824   1.025   2.218
  333DMC      C 3650   1.809   1.112   2.329
  333DMC      H 3651   2.014   1.093   1.887
  333DMC      H 3652   1.921   0.964   1.808
  333DMC      H 3653   1.842   1.118   1.843
  333DMC      H 3654   1.778   1.053   2.415
  333DMC      H 3655   1.904   1.161   2.353
  333DMC      H 3656   1.731   1.187   2.308
  334DMC      C 3657   2.646   3.005   0.418
  334DMC      O 3658   2.574   2.888   0.458
  334DMC      C 3659   2.447   2.914   0.498
  334DMC      O 3660   2.394   3.024   0.503
  334DMC      O 3661   2.389   2.796   0.532
  334DMC      C 3662   2.255   2.809   0.577
  334DMC      H 3663   2.656   3.075   0.502
  334DMC      H 3664   2.747   2.974   0.387
  334DMC      H 3665   2.598   3.054   0.333
  334DMC      H 3666   2.217   2.709   0.603
  334DMC      H 3667   2.250   2.871   0.668
  334DMC      H 3668   2.192   2.851   0.498
  335DMC      C 3669   3.481   0.618   1.620
  335DMC      O 3670   3.432   0.610   1.485
  335DMC      C 3671   3.396   0.486   1.448
  335DMC      O 3672   3.402   0.385   1.517
  335DMC      O 3673   3.351   0.491   1.319
  335DMC      C 3674   3.310   0.366   1.268
  335DMC      H 3675   3.571   0.557   1.632
  335DMC      H 3676   3.508   0.722   1.640
  335DMC      H 3677   3.404   0.588   1.690
  335DMC      H 3678   3.276   0.381   1.164
  335DMC      H 3679   3.394   0.295   1.266
  335DMC      H 3680   3.226   0.326   1.326
  336DMC      C 3681   1.162   0.072   1.824
  336DMC      O 3682   1.289   0.125   1.784
  336DMC      C 3683   1.320   0.244   1.841
  336DMC      O 3684   1.250   0.306   1.919
  336DMC      O 3685   1.442   0.282   1.795
  336DMC      C 3686   1.486   0.407   1.848
  336DMC      H 3687   1.081   0.140   1.795
  336DMC      H 3688   1.147  -0.023   1.773
  336DMC      H 3689   1.160   0.055   1.932
  336DMC      H 3690   1.585   0.429   1.805
  336DMC      H 3691   1.417   0.487   1.819
  336DMC      H 3692   1.496   0.401   1.956
  337DMC      C 3693   3.557   0.968   0.536
  337DMC      O 3694   3.420   0.951   0.573
  337DMC      C 3695   3.394   0.981   0.702
  337DMC      O 3696   3.476   1.019   0.785
  337DMC      O 3697   3.261   0.962   0.724
  337DMC      C 3698   3.221   0.990   0.858
  337DMC      H 3699   3.621   0.901   0.595
  337DMC      H 3700   3.568   0.941   0.430
  337DMC      H 3701   3.588   1.072   0.548
  337DMC      H 3702   3.113   0.971   0.865
  337DMC      H 3703   3.272   0.924   0.928
  337DMC      H 3704   3.240   1.095   0.882
  338DMC      C 3705   3.525   2.056   1.053
  338DMC      O 3706   3.658   2.108   1.060
  338DMC      C 3707   3.708   2.146   0.940
  338DMC      O 3708   3.650   2.139   0.833
  338DMC      O 3709   3.834   2.194   0.960
  338DMC      C 3710   3.898   2.237   0.841
  338DMC      H 3711   3.522   1.966   0.990
  338DMC      H 3712   3.494   2.028   1.154
  338DMC      H 3713   3.456   2.131   1.015
  338DMC      H 3714   3.998   2.273   0.867
  338DMC      H 3715   3.909   2.154   0.771
  338DMC      H 3716   3.842   2.320   0.795
  339DMC      C 3717   1.622   2.096   2.006
  339DMC      O 3718   1.610   2.219   1.934
  339DMC      C 3719   1.724   2.257   1.872
  339DMC      O 3720   1.831   2.197   1.874
  339DMC      O 3721   1.700   2.374   1.807
  339DMC      C 3722   1.813   2.426   1.738
  339DMC      H 3723   1.697   2.104   2.085
  339DMC      H 3724   1.525   2.073   2.051
  339DMC      H 3725   1.648   2.014   1.938
  339DMC      H 3726   1.783   2.520   1.690
  339DMC      H 3727   1.894   2.447   1.808
  339DMC      H 3728   1.846   2.356   1.660
  340DMC      C 3729   1.131   1.454   0.904
  340DMC      O 3730   1.085   1.532   0.794
  340DMC      C 3731   1.133   1.492   0.674
  340DMC      O 3732   1.209   1.398   0.655
  340DMC      O 3733   1.082   1.574   0.578
  340DMC      C 3734   1.125   1.542   0.447
  340DMC      H 3735   1.240   1.459   0.913
  340DMC      H 3736   1.087   1.494   0.996
  340DMC      H 3737   1.100   1.350   0.893
  340DMC      H 3738   1.079   1.613   0.377
  340DMC      H 3739   1.234   1.552   0.438
  340DMC      H 3740   1.093   1.441   0.419
   3.82000   3.82000   3.82000
