; ITP file created by ByteFF-ML, 2026-09-13 09:43:57.644252

[ defaults ]
;     nbfunc   comb-rule   gen-pairs     fudgeLJ     fudgeQQ
           1           2         yes  0.50000000  0.50000000

#include "EC.itp"
#include "DMC.itp"

#include "EC.atp"
#include "DMC.atp"

[ system ]
Full System

[ molecules ]
;molecule            nmols
 EC                    170
 DMC                   170