A Gromacs structure file written by ASE 
   10
    1DMSO     C    1  -0.133  -0.018   0.025  0.0000  0.0000  0.0000
    1DMSO     S    2  -0.001  -0.038  -0.098  0.0000  0.0000  0.0000
    1DMSO     C    3   0.135  -0.003   0.015  0.0000  0.0000  0.0000
    1DMSO     O    4  -0.013   0.090  -0.203  0.0000  0.0000  0.0000
    1DMSO     H    5  -0.229  -0.031  -0.024  0.0000  0.0000  0.0000
    1DMSO     H    6  -0.122  -0.094   0.103  0.0000  0.0000  0.0000
    1DMSO     H    7  -0.127   0.082   0.070  0.0000  0.0000  0.0000
    1DMSO     H    8   0.122   0.096   0.061  0.0000  0.0000  0.0000
    1DMSO     H    9   0.139  -0.079   0.093  0.0000  0.0000  0.0000
    1DMSO     H   10   0.229  -0.005  -0.041  0.0000  0.0000  0.0000

