A Gromacs structure file written by ASE
 3672
    1DMSO     C    1   1.782   1.897   1.940
    1DMSO     S    2   1.914   1.877   1.817
    1DMSO     C    3   2.050   1.912   1.930
    1DMSO     O    4   1.902   2.005   1.712
    1DMSO     H    5   1.686   1.884   1.891
    1DMSO     H    6   1.793   1.821   2.018
    1DMSO     H    7   1.788   1.997   1.985
    1DMSO     H    8   2.037   2.011   1.976
    1DMSO     H    9   2.054   1.836   2.008
    1DMSO     H   10   2.144   1.910   1.874
    2DMSO     C   11   1.175   1.460   0.525
    2DMSO     S   12   1.020   1.536   0.470
    2DMSO     C   13   1.097   1.675   0.385
    2DMSO     O   14   0.945   1.596   0.605
    2DMSO     H   15   1.152   1.372   0.585
    2DMSO     H   16   1.234   1.429   0.438
    2DMSO     H   17   1.233   1.532   0.584
    2DMSO     H   18   1.161   1.732   0.454
    2DMSO     H   19   1.158   1.639   0.301
    2DMSO     H   20   1.019   1.741   0.345
    3DMSO     C   21   1.950   2.883   2.168
    3DMSO     S   22   2.032   2.985   2.041
    3DMSO     C   23   1.945   2.913   1.901
    3DMSO     O   24   2.190   2.934   2.034
    3DMSO     H   25   1.992   2.908   2.265
    3DMSO     H   26   1.843   2.906   2.168
    3DMSO     H   27   1.965   2.777   2.146
    3DMSO     H   28   1.960   2.804   1.898
    3DMSO     H   29   1.838   2.934   1.908
    3DMSO     H   30   1.983   2.958   1.809
    4DMSO     C   31   1.994   3.323   3.680
    4DMSO     S   32   1.880   3.392   3.556
    4DMSO     C   33   2.004   3.487   3.467
    4DMSO     O   34   1.782   3.500   3.636
    4DMSO     H   35   1.938   3.263   3.751
    4DMSO     H   36   2.068   3.260   3.630
    4DMSO     H   37   2.045   3.405   3.733
    4DMSO     H   38   2.055   3.557   3.535
    4DMSO     H   39   2.078   3.419   3.423
    4DMSO     H   40   1.955   3.542   3.387
    5DMSO     C   41   1.550   0.986   1.265
    5DMSO     S   42   1.448   1.071   1.389
    5DMSO     C   43   1.564   1.052   1.525
    5DMSO     O   44   1.318   0.974   1.419
    5DMSO     H   45   1.496   0.981   1.171
    5DMSO     H   46   1.643   1.041   1.250
    5DMSO     H   47   1.573   0.884   1.300
    5DMSO     H   48   1.586   0.945   1.542
    5DMSO     H   49   1.657   1.105   1.503
    5DMSO     H   50   1.520   1.094   1.616
    6DMSO     C   51   0.651   1.528   1.300
    6DMSO     S   52   0.701   1.567   1.130
    6DMSO     C   53   0.728   1.743   1.159
    6DMSO     O   54   0.566   1.552   1.035
    6DMSO     H   55   0.624   1.423   1.306
    6DMSO     H   56   0.734   1.548   1.368
    6DMSO     H   57   0.565   1.590   1.328
    6DMSO     H   58   0.637   1.790   1.197
    6DMSO     H   59   0.809   1.757   1.230
    6DMSO     H   60   0.756   1.790   1.064
    7DMSO     C   61   1.525   0.203   3.571
    7DMSO     S   62   1.422   0.313   3.470
    7DMSO     C   63   1.271   0.290   3.566
    7DMSO     O   64   1.400   0.238   3.324
    7DMSO     H   65   1.624   0.197   3.527
    7DMSO     H   66   1.533   0.243   3.673
    7DMSO     H   67   1.480   0.103   3.575
    7DMSO     H   68   1.244   0.184   3.571
    7DMSO     H   69   1.285   0.328   3.668
    7DMSO     H   70   1.190   0.347   3.519
    8DMSO     C   71   1.512   2.276   2.648
    8DMSO     S   72   1.432   2.365   2.785
    8DMSO     C   73   1.580   2.378   2.887
    8DMSO     O   74   1.330   2.257   2.859
    8DMSO     H   75   1.437   2.252   2.573
    8DMSO     H   76   1.589   2.339   2.603
    8DMSO     H   77   1.558   2.183   2.685
    8DMSO     H   78   1.622   2.278   2.907
    8DMSO     H   79   1.655   2.438   2.836
    8DMSO     H   80   1.554   2.426   2.981
    9DMSO     C   81   3.045   1.105   2.157
    9DMSO     S   82   3.195   1.133   2.255
    9DMSO     C   83   3.110   1.144   2.414
    9DMSO     O   84   3.250   1.284   2.217
    9DMSO     H   85   3.072   1.099   2.052
    9DMSO     H   86   2.998   1.011   2.187
    9DMSO     H   87   2.974   1.188   2.172
    9DMSO     H   88   3.035   1.224   2.412
    9DMSO     H   89   3.062   1.050   2.438
    9DMSO     H   90   3.184   1.166   2.492
   10DMSO     C   91   0.132   2.184   2.129
   10DMSO     S   92   0.173   2.301   2.263
   10DMSO     C   93   0.122   2.193   2.398
   10DMSO     O   94   0.062   2.425   2.254
   10DMSO     H   95   0.151   2.232   2.034
   10DMSO     H   96   0.195   2.095   2.139
   10DMSO     H   97   0.026   2.155   2.136
   10DMSO     H   98   0.017   2.163   2.386
   10DMSO     H   99   0.185   2.104   2.400
   10DMSO     H  100   0.134   2.247   2.492
   11DMSO     C  101   0.310   1.364   3.477
   11DMSO     S  102   0.288   1.501   3.360
   11DMSO     C  103   0.155   1.582   3.450
   11DMSO     O  104   0.224   1.437   3.221
   11DMSO     H  105   0.387   1.297   3.439
   11DMSO     H  106   0.342   1.404   3.574
   11DMSO     H  107   0.216   1.310   3.489
   11DMSO     H  108   0.071   1.512   3.464
   11DMSO     H  109   0.190   1.615   3.547
   11DMSO     H  110   0.121   1.669   3.393
   12DMSO     C  111   0.912   1.966   0.245
   12DMSO     S  112   0.916   1.916   0.071
   12DMSO     C  113   1.094   1.933   0.051
   12DMSO     O  114   0.844   2.039  -0.016
   12DMSO     H  115   0.809   1.967   0.279
   12DMSO     H  116   0.969   1.893   0.305
   12DMSO     H  117   0.957   2.065   0.257
   12DMSO     H  118   1.126   2.035   0.076
   12DMSO     H  119   1.146   1.862   0.115
   12DMSO     H  120   1.121   1.912  -0.053
   13DMSO     C  121   2.674   3.712   0.151
   13DMSO     S  122   2.762   3.634   0.013
   13DMSO     C  123   2.629   3.653  -0.107
   13DMSO     O  124   2.775   3.473   0.049
   13DMSO     H  125   2.737   3.709   0.240
   13DMSO     H  126   2.653   3.817   0.127
   13DMSO     H  127   2.580   3.660   0.170
   13DMSO     H  128   2.537   3.604  -0.070
   13DMSO     H  129   2.609   3.759  -0.124
   13DMSO     H  130   2.659   3.606  -0.201
   14DMSO     C  131   1.664   3.366   1.700
   14DMSO     S  132   1.564   3.214   1.698
   14DMSO     C  133   1.681   3.116   1.602
   14DMSO     O  134   1.432   3.244   1.602
   14DMSO     H  135   1.608   3.444   1.751
   14DMSO     H  136   1.758   3.347   1.753
   14DMSO     H  137   1.685   3.397   1.597
   14DMSO     H  138   1.701   3.165   1.506
   14DMSO     H  139   1.774   3.104   1.657
   14DMSO     H  140   1.637   3.017   1.584
   15DMSO     C  141   1.306   3.885   2.425
   15DMSO     S  142   1.211   3.776   2.314
   15DMSO     C  143   1.352   3.725   2.214
   15DMSO     O  144   1.116   3.874   2.220
   15DMSO     H  145   1.237   3.933   2.494
   15DMSO     H  146   1.378   3.826   2.481
   15DMSO     H  147   1.358   3.962   2.366
   15DMSO     H  148   1.402   3.813   2.170
   15DMSO     H  149   1.424   3.671   2.276
   15DMSO     H  150   1.317   3.660   2.134
   16DMSO     C  151   2.632   2.094   0.908
   16DMSO     S  152   2.723   2.251   0.896
   16DMSO     C  153   2.599   2.350   0.983
   16DMSO     O  154   2.719   2.296   0.736
   16DMSO     H  155   2.689   2.017   0.856
   16DMSO     H  156   2.622   2.066   1.014
   16DMSO     H  157   2.533   2.105   0.863
   16DMSO     H  158   2.502   2.342   0.933
   16DMSO     H  159   2.590   2.316   1.086
   16DMSO     H  160   2.632   2.455   0.983
   17DMSO     C  161   0.204   0.455   3.317
   17DMSO     S  162   0.251   0.630   3.333
   17DMSO     C  163   0.300   0.652   3.161
   17DMSO     O  164   0.388   0.635   3.426
   17DMSO     H  165   0.173   0.418   3.414
   17DMSO     H  166   0.120   0.447   3.247
   17DMSO     H  167   0.289   0.398   3.279
   17DMSO     H  168   0.379   0.580   3.135
   17DMSO     H  169   0.214   0.638   3.096
   17DMSO     H  170   0.338   0.754   3.148
   18DMSO     C  171   1.818   1.604   3.724
   18DMSO     S  172   1.640   1.590   3.756
   18DMSO     C  173   1.589   1.596   3.583
   18DMSO     O  174   1.592   1.732   3.827
   18DMSO     H  175   1.871   1.607   3.818
   18DMSO     H  176   1.852   1.517   3.666
   18DMSO     H  177   1.838   1.696   3.667
   18DMSO     H  178   1.626   1.689   3.536
   18DMSO     H  179   1.629   1.510   3.529
   18DMSO     H  180   1.480   1.594   3.578
   19DMSO     C  181   3.145   1.236   3.550
   19DMSO     S  182   2.967   1.212   3.575
   19DMSO     C  183   2.937   1.127   3.420
   19DMSO     O  184   2.896   1.362   3.564
   19DMSO     H  185   3.185   1.292   3.633
   19DMSO     H  186   3.194   1.139   3.545
   19DMSO     H  187   3.162   1.291   3.456
   19DMSO     H  188   2.969   1.189   3.335
   19DMSO     H  189   2.991   1.032   3.418
   19DMSO     H  190   2.830   1.105   3.411
   20DMSO     C  191   2.228   1.192   2.068
   20DMSO     S  192   2.176   1.120   1.910
   20DMSO     C  193   2.024   1.046   1.972
   20DMSO     O  194   2.282   0.996   1.877
   20DMSO     H  195   2.324   1.241   2.055
   20DMSO     H  196   2.154   1.267   2.100
   20DMSO     H  197   2.235   1.114   2.144
   20DMSO     H  198   2.046   0.978   2.056
   20DMSO     H  199   1.956   1.124   2.006
   20DMSO     H  200   1.976   0.990   1.891
   21DMSO     C  201   0.900   3.871   1.178
   21DMSO     S  202   0.915   3.701   1.241
   21DMSO     C  203   0.927   3.747   1.415
   21DMSO     O  204   1.065   3.646   1.194
   21DMSO     H  205   0.895   3.867   1.070
   21DMSO     H  206   0.807   3.915   1.216
   21DMSO     H  207   0.986   3.931   1.210
   21DMSO     H  208   1.012   3.816   1.431
   21DMSO     H  209   0.835   3.795   1.447
   21DMSO     H  210   0.943   3.657   1.475
   22DMSO     C  211   0.127   1.490   1.835
   22DMSO     S  212   0.206   1.350   1.749
   22DMSO     C  213   0.059   1.297   1.660
   22DMSO     O  214   0.239   1.235   1.864
   22DMSO     H  215   0.200   1.536   1.901
   22DMSO     H  216   0.094   1.563   1.761
   22DMSO     H  217   0.041   1.454   1.893
   22DMSO     H  218  -0.023   1.275   1.731
   22DMSO     H  219   0.027   1.375   1.591
   22DMSO     H  220   0.082   1.207   1.603
   23DMSO     C  221   2.886   0.323   2.272
   23DMSO     S  222   2.778   0.235   2.388
   23DMSO     C  223   2.709   0.121   2.266
   23DMSO     O  224   2.658   0.341   2.431
   23DMSO     H  225   2.937   0.403   2.325
   23DMSO     H  226   2.961   0.254   2.231
   23DMSO     H  227   2.827   0.365   2.189
   23DMSO     H  228   2.662   0.177   2.184
   23DMSO     H  229   2.788   0.058   2.226
   23DMSO     H  230   2.634   0.059   2.315
   24DMSO     C  231   1.571   0.088   0.939
   24DMSO     S  232   1.544   0.164   0.776
   24DMSO     C  233   1.655   0.054   0.686
   24DMSO     O  234   1.615   0.314   0.781
   24DMSO     H  235   1.514   0.143   1.013
   24DMSO     H  236   1.535  -0.016   0.937
   24DMSO     H  237   1.678   0.089   0.964
   24DMSO     H  238   1.756   0.058   0.729
   24DMSO     H  239   1.617  -0.049   0.691
   24DMSO     H  240   1.658   0.085   0.581
   25DMSO     C  241   0.028   0.420   0.802
   25DMSO     S  242   0.193   0.433   0.875
   25DMSO     C  243   0.140   0.509   1.029
   25DMSO     O  244   0.275   0.548   0.788
   25DMSO     H  245   0.036   0.378   0.702
   25DMSO     H  246  -0.034   0.353   0.863
   25DMSO     H  247  -0.019   0.519   0.798
   25DMSO     H  248   0.085   0.602   1.009
   25DMSO     H  249   0.076   0.441   1.084
   25DMSO     H  250   0.228   0.531   1.090
   26DMSO     C  251   3.935   0.910   3.176
   26DMSO     S  252   3.834   0.982   3.044
   26DMSO     C  253   3.739   1.092   3.150
   26DMSO     O  254   3.731   0.862   2.991
   26DMSO     H  255   4.000   0.834   3.134
   26DMSO     H  256   3.997   0.988   3.222
   26DMSO     H  257   3.870   0.865   3.252
   26DMSO     H  258   3.688   1.034   3.229
   26DMSO     H  259   3.806   1.165   3.196
   26DMSO     H  260   3.665   1.145   3.090
   27DMSO     C  261   0.953   2.937   1.095
   27DMSO     S  262   1.007   3.089   1.180
   27DMSO     C  263   1.008   3.017   1.345
   27DMSO     O  264   0.880   3.196   1.173
   27DMSO     H  265   0.940   2.959   0.989
   27DMSO     H  266   1.029   2.860   1.107
   27DMSO     H  267   0.858   2.903   1.138
   27DMSO     H  268   0.910   2.977   1.371
   27DMSO     H  269   1.083   2.938   1.351
   27DMSO     H  270   1.035   3.095   1.417
   28DMSO     C  271   2.265   0.752   1.507
   28DMSO     S  272   2.103   0.705   1.441
   28DMSO     C  273   2.163   0.568   1.340
   28DMSO     O  274   2.055   0.826   1.338
   28DMSO     H  275   2.253   0.840   1.570
   28DMSO     H  276   2.306   0.670   1.566
   28DMSO     H  277   2.334   0.775   1.424
   28DMSO     H  278   2.239   0.604   1.269
   28DMSO     H  279   2.207   0.491   1.403
   28DMSO     H  280   2.079   0.525   1.284
   29DMSO     C  281   0.125   2.034   2.842
   29DMSO     S  282   0.053   2.151   2.961
   29DMSO     C  283   0.208   2.191   3.043
   29DMSO     O  284  -0.038   2.061   3.067
   29DMSO     H  285   0.045   1.992   2.781
   29DMSO     H  286   0.195   2.087   2.776
   29DMSO     H  287   0.178   1.954   2.895
   29DMSO     H  288   0.255   2.100   3.082
   29DMSO     H  289   0.276   2.240   2.973
   29DMSO     H  290   0.187   2.260   3.126
   30DMSO     C  291   0.332   0.543   1.501
   30DMSO     S  292   0.168   0.517   1.575
   30DMSO     C  293   0.223   0.405   1.705
   30DMSO     O  294   0.080   0.428   1.466
   30DMSO     H  295   0.322   0.607   1.414
   30DMSO     H  296   0.397   0.592   1.574
   30DMSO     H  297   0.375   0.447   1.472
   30DMSO     H  298   0.275   0.319   1.661
   30DMSO     H  299   0.291   0.458   1.772
   30DMSO     H  300   0.136   0.372   1.762
   31DMSO     C  301   2.825   2.153   1.347
   31DMSO     S  302   2.911   2.246   1.477
   31DMSO     C  303   2.834   2.405   1.440
   31DMSO     O  304   3.070   2.256   1.433
   31DMSO     H  305   2.861   2.050   1.348
   31DMSO     H  306   2.718   2.153   1.366
   31DMSO     H  307   2.845   2.198   1.249
   31DMSO     H  308   2.853   2.433   1.335
   31DMSO     H  309   2.726   2.399   1.457
   31DMSO     H  310   2.876   2.481   1.506
   32DMSO     C  311   1.003   0.126   0.620
   32DMSO     S  312   1.113   0.183   0.487
   32DMSO     C  313   1.037   0.345   0.467
   32DMSO     O  314   1.077   0.094   0.352
   32DMSO     H  315   1.029   0.024   0.646
   32DMSO     H  316   1.016   0.190   0.708
   32DMSO     H  317   0.899   0.131   0.586
   32DMSO     H  318   0.930   0.334   0.444
   32DMSO     H  319   1.048   0.403   0.559
   32DMSO     H  320   1.086   0.398   0.386
   33DMSO     C  321   3.432   3.367   0.656
   33DMSO     S  322   3.500   3.263   0.788
   33DMSO     C  323   3.450   3.371   0.924
   33DMSO     O  324   3.665   3.272   0.776
   33DMSO     H  325   3.455   3.321   0.560
   33DMSO     H  326   3.323   3.373   0.667
   33DMSO     H  327   3.475   3.467   0.661
   33DMSO     H  328   3.491   3.472   0.910
   33DMSO     H  329   3.341   3.377   0.928
   33DMSO     H  330   3.486   3.329   1.018
   34DMSO     C  331   3.533   3.729   2.661
   34DMSO     S  332   3.491   3.625   2.803
   34DMSO     C  333   3.580   3.479   2.746
   34DMSO     O  334   3.329   3.592   2.793
   34DMSO     H  335   3.484   3.825   2.672
   34DMSO     H  336   3.641   3.744   2.657
   34DMSO     H  337   3.499   3.680   2.568
   34DMSO     H  338   3.544   3.448   2.647
   34DMSO     H  339   3.687   3.500   2.740
   34DMSO     H  340   3.565   3.398   2.818
   35DMSO     C  341   1.498   3.443   0.190
   35DMSO     S  342   1.456   3.437   0.367
   35DMSO     C  343   1.310   3.333   0.347
   35DMSO     O  344   1.405   3.589   0.410
   35DMSO     H  345   1.585   3.507   0.177
   35DMSO     H  346   1.522   3.343   0.155
   35DMSO     H  347   1.413   3.483   0.133
   35DMSO     H  348   1.238   3.381   0.279
   35DMSO     H  349   1.339   3.236   0.307
   35DMSO     H  350   1.263   3.319   0.445
   36DMSO     C  351   3.591   0.822   0.361
   36DMSO     S  352   3.678   0.747   0.501
   36DMSO     C  353   3.531   0.678   0.579
   36DMSO     O  354   3.732   0.871   0.597
   36DMSO     H  355   3.663   0.876   0.300
   36DMSO     H  356   3.543   0.744   0.301
   36DMSO     H  357   3.514   0.892   0.398
   36DMSO     H  358   3.458   0.758   0.601
   36DMSO     H  359   3.485   0.604   0.514
   36DMSO     H  360   3.560   0.629   0.673
   37DMSO     C  361   3.507   2.509   1.398
   37DMSO     S  362   3.347   2.594   1.402
   37DMSO     C  363   3.414   2.759   1.370
   37DMSO     O  364   3.294   2.591   1.559
   37DMSO     H  365   3.491   2.403   1.420
   37DMSO     H  366   3.552   2.518   1.299
   37DMSO     H  367   3.575   2.553   1.473
   37DMSO     H  368   3.488   2.785   1.447
   37DMSO     H  369   3.461   2.762   1.272
   37DMSO     H  370   3.332   2.831   1.372
   38DMSO     C  371   0.342   0.147   0.294
   38DMSO     S  372   0.165   0.115   0.317
   38DMSO     C  373   0.150   0.207   0.471
   38DMSO     O  374   0.150  -0.046   0.354
   38DMSO     H  375   0.376   0.095   0.205
   38DMSO     H  376   0.358   0.254   0.280
   38DMSO     H  377   0.398   0.112   0.382
   38DMSO     H  378   0.220   0.168   0.546
   38DMSO     H  379   0.171   0.313   0.453
   38DMSO     H  380   0.047   0.198   0.508
   39DMSO     C  381   1.226   0.928   3.332
   39DMSO     S  382   1.359   0.811   3.293
   39DMSO     C  383   1.326   0.806   3.115
   39DMSO     O  384   1.315   0.665   3.356
   39DMSO     H  385   1.224   0.944   3.440
   39DMSO     H  386   1.245   1.024   3.283
   39DMSO     H  387   1.130   0.888   3.299
   39DMSO     H  388   1.223   0.774   3.097
   39DMSO     H  389   1.343   0.904   3.071
   39DMSO     H  390   1.395   0.734   3.069
   40DMSO     C  391   1.482  -0.034   1.482
   40DMSO     S  392   1.349   0.078   1.429
   40DMSO     C  393   1.306   0.135   1.594
   40DMSO     O  394   1.225  -0.017   1.374
   40DMSO     H  395   1.522  -0.085   1.395
   40DMSO     H  396   1.562   0.024   1.529
   40DMSO     H  397   1.442  -0.107   1.553
   40DMSO     H  398   1.279   0.050   1.658
   40DMSO     H  399   1.390   0.188   1.638
   40DMSO     H  400   1.221   0.204   1.587
   41DMSO     C  401   1.585   1.462   2.382
   41DMSO     S  402   1.549   1.591   2.504
   41DMSO     C  403   1.590   1.491   2.649
   41DMSO     O  404   1.384   1.612   2.504
   41DMSO     H  405   1.562   1.500   2.283
   41DMSO     H  406   1.691   1.436   2.387
   41DMSO     H  407   1.525   1.373   2.403
   41DMSO     H  408   1.529   1.399   2.651
   41DMSO     H  409   1.696   1.465   2.647
   41DMSO     H  410   1.570   1.550   2.739
   42DMSO     C  411   2.203   2.758   0.505
   42DMSO     S  412   2.305   2.819   0.368
   42DMSO     C  413   2.383   2.952   0.461
   42DMSO     O  414   2.202   2.888   0.258
   42DMSO     H  415   2.141   2.676   0.470
   42DMSO     H  416   2.267   2.721   0.586
   42DMSO     H  417   2.139   2.839   0.543
   42DMSO     H  418   2.307   3.020   0.503
   42DMSO     H  419   2.443   2.911   0.543
   42DMSO     H  420   2.449   3.008   0.394
   43DMSO     C  421   3.484   3.252   1.965
   43DMSO     S  422   3.482   3.328   1.800
   43DMSO     C  423   3.306   3.302   1.770
   43DMSO     O  424   3.565   3.227   1.699
   43DMSO     H  425   3.586   3.253   2.002
   43DMSO     H  426   3.421   3.309   2.033
   43DMSO     H  427   3.447   3.149   1.958
   43DMSO     H  428   3.281   3.195   1.778
   43DMSO     H  429   3.247   3.358   1.843
   43DMSO     H  430   3.281   3.338   1.670
   44DMSO     C  431   2.351   3.451   0.378
   44DMSO     S  432   2.387   3.625   0.342
   44DMSO     C  433   2.326   3.622   0.172
   44DMSO     O  434   2.552   3.641   0.335
   44DMSO     H  435   2.385   3.429   0.479
   44DMSO     H  436   2.243   3.434   0.372
   44DMSO     H  437   2.403   3.387   0.306
   44DMSO     H  438   2.379   3.545   0.114
   44DMSO     H  439   2.219   3.600   0.171
   44DMSO     H  440   2.343   3.720   0.126
   45DMSO     C  441   0.504   0.979   1.043
   45DMSO     S  442   0.406   1.116   0.975
   45DMSO     C  443   0.342   1.025   0.834
   45DMSO     O  444   0.514   1.228   0.918
   45DMSO     H  445   0.557   1.013   1.131
   45DMSO     H  446   0.437   0.897   1.071
   45DMSO     H  447   0.575   0.943   0.967
   45DMSO     H  448   0.424   0.986   0.773
   45DMSO     H  449   0.280   0.942   0.868
   45DMSO     H  450   0.281   1.092   0.773
   46DMSO     C  451   3.301   1.756   0.253
   46DMSO     S  452   3.385   1.789   0.095
   46DMSO     C  453   3.393   1.616   0.043
   46DMSO     O  454   3.539   1.837   0.131
   46DMSO     H  455   3.289   1.850   0.306
   46DMSO     H  456   3.202   1.713   0.234
   46DMSO     H  457   3.361   1.686   0.313
   46DMSO     H  458   3.446   1.556   0.118
   46DMSO     H  459   3.292   1.577   0.029
   46DMSO     H  460   3.446   1.611  -0.053
   47DMSO     C  461   3.721   2.922   0.187
   47DMSO     S  462   3.754   3.100   0.181
   47DMSO     C  463   3.709   3.133   0.352
   47DMSO     O  464   3.638   3.168   0.084
   47DMSO     H  465   3.738   2.879   0.089
   47DMSO     H  466   3.788   2.874   0.259
   47DMSO     H  467   3.616   2.905   0.218
   47DMSO     H  468   3.605   3.101   0.371
   47DMSO     H  469   3.776   3.081   0.420
   47DMSO     H  470   3.717   3.241   0.371
   48DMSO     C  471   1.296   2.108   0.332
   48DMSO     S  472   1.284   2.289   0.333
   48DMSO     C  473   1.442   2.317   0.415
   48DMSO     O  474   1.164   2.329   0.441
   48DMSO     H  475   1.205   2.067   0.288
   48DMSO     H  476   1.381   2.077   0.271
   48DMSO     H  477   1.308   2.070   0.434
   48DMSO     H  478   1.445   2.264   0.512
   48DMSO     H  479   1.524   2.281   0.353
   48DMSO     H  480   1.455   2.424   0.432
   49DMSO     C  481   2.565   1.246   1.752
   49DMSO     S  482   2.641   1.099   1.827
   49DMSO     C  483   2.628   1.158   1.997
   49DMSO     O  484   2.801   1.101   1.785
   49DMSO     H  485   2.565   1.234   1.644
   49DMSO     H  486   2.461   1.255   1.786
   49DMSO     H  487   2.621   1.336   1.780
   49DMSO     H  488   2.680   1.254   2.008
   49DMSO     H  489   2.524   1.170   2.025
   49DMSO     H  490   2.674   1.084   2.064
   50DMSO     C  491   2.161   1.791   2.449
   50DMSO     S  492   2.037   1.832   2.575
   50DMSO     C  493   2.140   1.788   2.717
   50DMSO     O  494   1.917   1.718   2.563
   50DMSO     H  495   2.117   1.807   2.351
   50DMSO     H  496   2.247   1.857   2.460
   50DMSO     H  497   2.192   1.687   2.460
   50DMSO     H  498   2.173   1.683   2.709
   50DMSO     H  499   2.227   1.853   2.721
   50DMSO     H  500   2.081   1.800   2.808
   51DMSO     C  501   1.561   2.355   3.903
   51DMSO     S  502   1.661   2.204   3.909
   51DMSO     C  503   1.728   2.219   3.742
   51DMSO     O  504   1.556   2.075   3.909
   51DMSO     H  505   1.506   2.364   3.996
   51DMSO     H  506   1.626   2.442   3.892
   51DMSO     H  507   1.491   2.350   3.819
   51DMSO     H  508   1.646   2.224   3.669
   51DMSO     H  509   1.789   2.309   3.735
   51DMSO     H  510   1.791   2.132   3.721
   52DMSO     C  511   0.359   2.626   3.059
   52DMSO     S  512   0.361   2.567   2.888
   52DMSO     C  513   0.465   2.423   2.919
   52DMSO     O  514   0.451   2.676   2.800
   52DMSO     H  515   0.302   2.719   3.063
   52DMSO     H  516   0.310   2.552   3.123
   52DMSO     H  517   0.461   2.643   3.094
   52DMSO     H  518   0.561   2.455   2.965
   52DMSO     H  519   0.414   2.354   2.987
   52DMSO     H  520   0.485   2.372   2.825
   53DMSO     C  521   1.434   2.806   0.592
   53DMSO     S  522   1.526   2.958   0.555
   53DMSO     C  523   1.400   3.031   0.450
   53DMSO     O  524   1.654   2.915   0.458
   53DMSO     H  525   1.496   2.741   0.654
   53DMSO     H  526   1.343   2.831   0.647
   53DMSO     H  527   1.408   2.755   0.498
   53DMSO     H  528   1.376   2.964   0.366
   53DMSO     H  529   1.309   3.050   0.508
   53DMSO     H  530   1.437   3.126   0.411
   54DMSO     C  531   1.325   1.420   1.763
   54DMSO     S  532   1.187   1.529   1.808
   54DMSO     C  533   1.235   1.665   1.700
   54DMSO     O  534   1.214   1.577   1.965
   54DMSO     H  535   1.320   1.329   1.822
   54DMSO     H  536   1.318   1.395   1.657
   54DMSO     H  537   1.421   1.471   1.782
   54DMSO     H  538   1.337   1.699   1.724
   54DMSO     H  539   1.230   1.634   1.596
   54DMSO     H  540   1.165   1.748   1.715
   55DMSO     C  541   0.546   1.556   2.913
   55DMSO     S  542   0.483   1.404   2.838
   55DMSO     C  543   0.621   1.380   2.725
   55DMSO     O  544   0.351   1.446   2.746
   55DMSO     H  545   0.473   1.593   2.985
   55DMSO     H  546   0.640   1.535   2.965
   55DMSO     H  547   0.563   1.632   2.835
   55DMSO     H  548   0.634   1.468   2.660
   55DMSO     H  549   0.713   1.364   2.781
   55DMSO     H  550   0.602   1.292   2.663
   56DMSO     C  551   2.575   3.153   1.756
   56DMSO     S  552   2.394   3.141   1.749
   56DMSO     C  553   2.375   3.044   1.900
   56DMSO     O  554   2.357   3.041   1.621
   56DMSO     H  555   2.610   3.207   1.669
   56DMSO     H  556   2.604   3.209   1.846
   56DMSO     H  557   2.619   3.053   1.760
   56DMSO     H  558   2.434   2.951   1.893
   56DMSO     H  559   2.410   3.103   1.986
   56DMSO     H  560   2.270   3.020   1.914
   57DMSO     C  561   3.489   2.196   3.544
   57DMSO     S  562   3.372   2.195   3.406
   57DMSO     C  563   3.496   2.203   3.276
   57DMSO     O  564   3.293   2.341   3.408
   57DMSO     H  565   3.434   2.196   3.637
   57DMSO     H  566   3.552   2.106   3.540
   57DMSO     H  567   3.553   2.285   3.538
   57DMSO     H  568   3.560   2.292   3.289
   57DMSO     H  569   3.559   2.114   3.278
   57DMSO     H  570   3.446   2.208   3.179
   58DMSO     C  571   3.361   2.935   3.496
   58DMSO     S  572   3.381   3.076   3.609
   58DMSO     C  573   3.208   3.126   3.606
   58DMSO     O  574   3.468   3.192   3.528
   58DMSO     H  575   3.459   2.890   3.479
   58DMSO     H  576   3.295   2.861   3.542
   58DMSO     H  577   3.319   2.970   3.401
   58DMSO     H  578   3.176   3.147   3.503
   58DMSO     H  579   3.145   3.047   3.648
   58DMSO     H  580   3.196   3.217   3.667
   59DMSO     C  581   0.271   3.108   1.062
   59DMSO     S  582   0.170   3.082   1.210
   59DMSO     C  583   0.270   3.185   1.319
   59DMSO     O  584   0.193   2.924   1.257
   59DMSO     H  585   0.230   3.048   0.981
   59DMSO     H  586   0.269   3.213   1.034
   59DMSO     H  587   0.375   3.077   1.082
   59DMSO     H  588   0.374   3.150   1.321
   59DMSO     H  589   0.268   3.289   1.285
   59DMSO     H  590   0.229   3.181   1.420
   60DMSO     C  591   2.145   1.140   2.757
   60DMSO     S  592   2.150   1.007   2.634
   60DMSO     C  593   2.267   0.903   2.724
   60DMSO     O  594   2.229   1.067   2.501
   60DMSO     H  595   2.081   1.220   2.721
   60DMSO     H  596   2.104   1.102   2.851
   60DMSO     H  597   2.246   1.179   2.775
   60DMSO     H  598   2.360   0.959   2.744
   60DMSO     H  599   2.223   0.871   2.819
   60DMSO     H  600   2.290   0.815   2.664
   61DMSO     C  601   3.432   3.259   2.469
   61DMSO     S  602   3.575   3.164   2.410
   61DMSO     C  603   3.597   3.258   2.257
   61DMSO     O  604   3.519   3.013   2.369
   61DMSO     H  605   3.397   3.216   2.562
   61DMSO     H  606   3.462   3.363   2.487
   61DMSO     H  607   3.352   3.256   2.394
   61DMSO     H  608   3.505   3.255   2.197
   61DMSO     H  609   3.622   3.361   2.281
   61DMSO     H  610   3.679   3.213   2.200
   62DMSO     C  611   2.539   1.008   3.728
   62DMSO     S  612   2.616   0.847   3.695
   62DMSO     C  613   2.538   0.821   3.535
   62DMSO     O  614   2.550   0.739   3.802
   62DMSO     H  615   2.570   1.042   3.826
   62DMSO     H  616   2.571   1.080   3.652
   62DMSO     H  617   2.429   0.997   3.725
   62DMSO     H  618   2.428   0.824   3.545
   62DMSO     H  619   2.570   0.898   3.465
   62DMSO     H  620   2.568   0.723   3.496
   63DMSO     C  621   2.035   0.874   3.940
   63DMSO     S  622   1.964   0.788   3.796
   63DMSO     C  623   1.978   0.927   3.683
   63DMSO     O  624   1.802   0.766   3.829
   63DMSO     H  625   2.032   0.807   4.025
   63DMSO     H  626   2.139   0.901   3.918
   63DMSO     H  627   1.977   0.964   3.961
   63DMSO     H  628   1.924   1.014   3.722
   63DMSO     H  629   2.083   0.953   3.668
   63DMSO     H  630   1.935   0.898   3.586
   64DMSO     C  631   2.321   1.226   3.695
   64DMSO     S  632   2.373   1.362   3.587
   64DMSO     C  633   2.233   1.351   3.474
   64DMSO     O  634   2.508   1.309   3.505
   64DMSO     H  635   2.396   1.211   3.772
   64DMSO     H  636   2.226   1.252   3.743
   64DMSO     H  637   2.308   1.135   3.636
   64DMSO     H  638   2.227   1.251   3.431
   64DMSO     H  639   2.141   1.374   3.527
   64DMSO     H  640   2.247   1.425   3.394
   65DMSO     C  641   3.496   0.628   3.134
   65DMSO     S  642   3.323   0.574   3.134
   65DMSO     C  643   3.255   0.728   3.198
   65DMSO     O  644   3.308   0.459   3.253
   65DMSO     H  645   3.559   0.546   3.102
   65DMSO     H  646   3.508   0.712   3.065
   65DMSO     H  647   3.524   0.660   3.236
   65DMSO     H  648   3.300   0.753   3.294
   65DMSO     H  649   3.273   0.809   3.127
   65DMSO     H  650   3.147   0.716   3.210
   66DMSO     C  651   2.263   2.085   2.437
   66DMSO     S  652   2.167   2.216   2.355
   66DMSO     C  653   2.259   2.353   2.425
   66DMSO     O  654   2.016   2.215   2.424
   66DMSO     H  655   2.220   1.988   2.411
   66DMSO     H  656   2.367   2.089   2.402
   66DMSO     H  657   2.260   2.099   2.545
   66DMSO     H  658   2.256   2.349   2.535
   66DMSO     H  659   2.363   2.350   2.392
   66DMSO     H  660   2.214   2.447   2.392
   67DMSO     C  661   2.485   1.805   0.477
   67DMSO     S  662   2.451   1.982   0.453
   67DMSO     C  663   2.303   1.960   0.354
   67DMSO     O  664   2.570   2.041   0.354
   67DMSO     H  665   2.577   1.794   0.534
   67DMSO     H  666   2.403   1.760   0.533
   67DMSO     H  667   2.495   1.756   0.379
   67DMSO     H  668   2.325   1.899   0.265
   67DMSO     H  669   2.226   1.910   0.412
   67DMSO     H  670   2.266   2.058   0.322
   68DMSO     C  671   2.345   1.203   1.010
   68DMSO     S  672   2.511   1.231   0.943
   68DMSO     C  673   2.578   1.071   0.992
   68DMSO     O  674   2.583   1.346   1.039
   68DMSO     H  675   2.285   1.292   0.995
   68DMSO     H  676   2.298   1.119   0.957
   68DMSO     H  677   2.351   1.179   1.117
   68DMSO     H  678   2.568   1.057   1.100
   68DMSO     H  679   2.525   0.991   0.939
   68DMSO     H  680   2.684   1.067   0.964
   69DMSO     C  681   1.118   0.797   1.587
   69DMSO     S  682   1.276   0.764   1.503
   69DMSO     C  683   1.212   0.634   1.396
   69DMSO     O  684   1.376   0.693   1.614
   69DMSO     H  685   1.134   0.873   1.663
   69DMSO     H  686   1.045   0.834   1.514
   69DMSO     H  687   1.081   0.705   1.634
   69DMSO     H  688   1.168   0.553   1.456
   69DMSO     H  689   1.137   0.674   1.328
   69DMSO     H  690   1.295   0.594   1.336
   70DMSO     C  691   1.925   0.435   3.186
   70DMSO     S  692   1.915   0.295   3.071
   70DMSO     C  693   2.092   0.284   3.039
   70DMSO     O  694   1.843   0.352   2.932
   70DMSO     H  695   1.824   0.463   3.216
   70DMSO     H  696   1.982   0.405   3.274
   70DMSO     H  697   1.975   0.519   3.137
   70DMSO     H  698   2.130   0.379   3.001
   70DMSO     H  699   2.144   0.258   3.131
   70DMSO     H  700   2.110   0.205   2.965
   71DMSO     C  701   3.471   0.865   1.448
   71DMSO     S  702   3.432   0.973   1.589
   71DMSO     C  703   3.253   0.967   1.568
   71DMSO     O  704   3.482   1.126   1.548
   71DMSO     H  705   3.579   0.858   1.438
   71DMSO     H  706   3.430   0.765   1.466
   71DMSO     H  707   3.427   0.907   1.356
   71DMSO     H  708   3.225   1.001   1.468
   71DMSO     H  709   3.218   0.865   1.583
   71DMSO     H  710   3.207   1.031   1.643
   72DMSO     C  711   0.452   3.251   0.949
   72DMSO     S  712   0.428   3.333   0.789
   72DMSO     C  713   0.516   3.209   0.691
   72DMSO     O  714   0.521   3.470   0.791
   72DMSO     H  715   0.409   3.312   1.027
   72DMSO     H  716   0.401   3.154   0.948
   72DMSO     H  717   0.559   3.236   0.968
   72DMSO     H  718   0.618   3.197   0.728
   72DMSO     H  719   0.464   3.114   0.697
   72DMSO     H  720   0.518   3.242   0.587
   73DMSO     C  721   2.172   3.255   2.881
   73DMSO     S  722   2.220   3.126   2.763
   73DMSO     C  723   2.395   3.170   2.756
   73DMSO     O  724   2.153   3.168   2.617
   73DMSO     H  725   2.065   3.250   2.898
   73DMSO     H  726   2.224   3.237   2.976
   73DMSO     H  727   2.200   3.354   2.842
   73DMSO     H  728   2.406   3.276   2.726
   73DMSO     H  729   2.440   3.156   2.854
   73DMSO     H  730   2.445   3.106   2.684
   74DMSO     C  731   0.174   0.086   2.328
   74DMSO     S  732   0.172   0.262   2.374
   74DMSO     C  733   0.225   0.237   2.545
   74DMSO     O  734   0.012   0.308   2.378
   74DMSO     H  735   0.140   0.076   2.226
   74DMSO     H  736   0.277   0.048   2.336
   74DMSO     H  737   0.109   0.029   2.396
   74DMSO     H  738   0.156   0.169   2.597
   74DMSO     H  739   0.325   0.195   2.547
   74DMSO     H  740   0.226   0.334   2.596
   75DMSO     C  741   3.213   2.879   0.224
   75DMSO     S  742   3.213   3.005   0.356
   75DMSO     C  743   3.058   2.951   0.432
   75DMSO     O  744   3.184   3.151   0.283
   75DMSO     H  745   3.299   2.896   0.160
   75DMSO     H  746   3.220   2.780   0.269
   75DMSO     H  747   3.120   2.887   0.165
   75DMSO     H  748   2.976   2.953   0.358
   75DMSO     H  749   3.069   2.850   0.471
   75DMSO     H  750   3.034   3.019   0.515
   76DMSO     C  751   0.089   1.426   1.160
   76DMSO     S  752   0.062   1.257   1.100
   76DMSO     C  753   0.003   1.304   0.936
   76DMSO     O  754  -0.067   1.195   1.184
   76DMSO     H  755   0.122   1.421   1.264
   76DMSO     H  756   0.166   1.474   1.100
   76DMSO     H  757  -0.005   1.483   1.153
   76DMSO     H  758  -0.084   1.370   0.945
   76DMSO     H  759   0.083   1.356   0.882
   76DMSO     H  760  -0.024   1.214   0.881
   77DMSO     C  761   0.876   2.872   0.028
   77DMSO     S  762   0.708   2.940   0.033
   77DMSO     C  763   0.719   3.004   0.201
   77DMSO     O  764   0.604   2.811   0.035
   77DMSO     H  765   0.892   2.822  -0.067
   77DMSO     H  766   0.949   2.953   0.038
   77DMSO     H  767   0.890   2.800   0.111
   77DMSO     H  768   0.744   2.923   0.271
   77DMSO     H  769   0.795   3.082   0.206
   77DMSO     H  770   0.622   3.048   0.229
   78DMSO     C  771   1.750   3.274   0.516
   78DMSO     S  772   1.829   3.136   0.428
   78DMSO     C  773   1.942   3.092   0.560
   78DMSO     O  774   1.918   3.203   0.305
   78DMSO     H  775   1.677   3.321   0.451
   78DMSO     H  776   1.699   3.235   0.605
   78DMSO     H  777   1.826   3.347   0.547
   78DMSO     H  778   2.005   3.178   0.587
   78DMSO     H  779   1.887   3.058   0.647
   78DMSO     H  780   2.007   3.010   0.525
   79DMSO     C  781   2.822   2.846   1.676
   79DMSO     S  782   2.759   2.697   1.759
   79DMSO     C  783   2.791   2.756   1.927
   79DMSO     O  784   2.867   2.575   1.727
   79DMSO     H  785   2.816   2.831   1.568
   79DMSO     H  786   2.760   2.932   1.703
   79DMSO     H  787   2.926   2.864   1.706
   79DMSO     H  788   2.897   2.781   1.939
   79DMSO     H  789   2.730   2.844   1.947
   79DMSO     H  790   2.763   2.677   1.997
   80DMSO     C  791   1.001   3.148   3.675
   80DMSO     S  792   1.091   3.153   3.833
   80DMSO     C  793   0.974   3.260   3.918
   80DMSO     O  794   1.229   3.241   3.807
   80DMSO     H  795   1.058   3.090   3.604
   80DMSO     H  796   0.903   3.101   3.690
   80DMSO     H  797   0.987   3.250   3.638
   80DMSO     H  798   0.961   3.354   3.863
   80DMSO     H  799   0.877   3.210   3.927
   80DMSO     H  800   1.011   3.281   4.019
   81DMSO     C  801   0.657   0.303   2.176
   81DMSO     S  802   0.520   0.403   2.110
   81DMSO     C  803   0.404   0.266   2.091
   81DMSO     O  804   0.565   0.452   1.958
   81DMSO     H  805   0.743   0.367   2.191
   81DMSO     H  806   0.627   0.258   2.271
   81DMSO     H  807   0.681   0.223   2.104
   81DMSO     H  808   0.447   0.188   2.026
   81DMSO     H  809   0.381   0.223   2.189
   81DMSO     H  810   0.312   0.304   2.047
   82DMSO     C  811   2.416   0.178   0.535
   82DMSO     S  812   2.277   0.165   0.419
   82DMSO     C  813   2.281   0.338   0.367
   82DMSO     O  814   2.140   0.144   0.510
   82DMSO     H  815   2.429   0.082   0.584
   82DMSO     H  816   2.507   0.203   0.480
   82DMSO     H  817   2.395   0.255   0.610
   82DMSO     H  818   2.270   0.404   0.454
   82DMSO     H  819   2.375   0.359   0.316
   82DMSO     H  820   2.199   0.356   0.297
   83DMSO     C  821   0.118   2.592   0.735
   83DMSO     S  822   0.250   2.607   0.611
   83DMSO     C  823   0.177   2.745   0.522
   83DMSO     O  824   0.240   2.473   0.513
   83DMSO     H  825   0.141   2.508   0.800
   83DMSO     H  826   0.114   2.684   0.794
   83DMSO     H  827   0.022   2.576   0.684
   83DMSO     H  828   0.076   2.718   0.486
   83DMSO     H  829   0.171   2.832   0.586
   83DMSO     H  830   0.240   2.769   0.436
   84DMSO     C  831   3.834   3.619   1.560
   84DMSO     S  832   3.760   3.629   1.395
   84DMSO     C  833   3.589   3.613   1.449
   84DMSO     O  834   3.800   3.488   1.316
   84DMSO     H  835   3.942   3.622   1.551
   84DMSO     H  836   3.800   3.704   1.620
   84DMSO     H  837   3.803   3.525   1.609
   84DMSO     H  838   3.575   3.521   1.506
   84DMSO     H  839   3.563   3.699   1.512
   84DMSO     H  840   3.524   3.612   1.361
   85DMSO     C  841   2.908   2.235   3.258
   85DMSO     S  842   2.887   2.104   3.383
   85DMSO     C  843   3.007   2.171   3.500
   85DMSO     O  844   2.952   1.966   3.319
   85DMSO     H  845   2.846   2.212   3.173
   85DMSO     H  846   2.877   2.331   3.301
   85DMSO     H  847   3.014   2.241   3.228
   85DMSO     H  848   3.105   2.182   3.453
   85DMSO     H  849   2.973   2.269   3.536
   85DMSO     H  850   3.014   2.103   3.585
   86DMSO     C  851   3.686   2.595   1.941
   86DMSO     S  852   3.647   2.736   1.834
   86DMSO     C  853   3.622   2.639   1.684
   86DMSO     O  854   3.787   2.822   1.815
   86DMSO     H  855   3.710   2.632   2.041
   86DMSO     H  856   3.599   2.529   1.948
   86DMSO     H  857   3.771   2.539   1.900
   86DMSO     H  858   3.712   2.580   1.661
   86DMSO     H  859   3.537   2.572   1.697
   86DMSO     H  860   3.601   2.707   1.601
   87DMSO     C  861   2.262   3.742   0.756
   87DMSO     S  862   2.359   3.774   0.906
   87DMSO     C  863   2.519   3.738   0.832
   87DMSO     O  864   2.325   3.652   1.013
   87DMSO     H  865   2.156   3.754   0.779
   87DMSO     H  866   2.290   3.813   0.678
   87DMSO     H  867   2.281   3.640   0.720
   87DMSO     H  868   2.520   3.636   0.791
   87DMSO     H  869   2.540   3.809   0.752
   87DMSO     H  870   2.597   3.747   0.909
   88DMSO     C  871   2.961   1.796   2.080
   88DMSO     S  872   3.007   1.785   2.255
   88DMSO     C  873   2.897   1.647   2.294
   88DMSO     O  874   2.945   1.920   2.330
   88DMSO     H  875   3.015   1.879   2.035
   88DMSO     H  876   2.990   1.703   2.029
   88DMSO     H  877   2.853   1.811   2.071
   88DMSO     H  878   2.793   1.672   2.269
   88DMSO     H  879   2.927   1.558   2.238
   88DMSO     H  880   2.905   1.625   2.401
   89DMSO     C  881   3.291   2.029   2.371
   89DMSO     S  882   3.371   2.192   2.377
   89DMSO     C  883   3.329   2.226   2.549
   89DMSO     O  884   3.280   2.293   2.282
   89DMSO     H  885   3.300   1.989   2.270
   89DMSO     H  886   3.341   1.961   2.441
   89DMSO     H  887   3.185   2.038   2.398
   89DMSO     H  888   3.220   2.222   2.563
   89DMSO     H  889   3.378   2.154   2.614
   89DMSO     H  890   3.365   2.326   2.574
   90DMSO     C  891   1.805   3.155   1.062
   90DMSO     S  892   1.858   3.288   0.950
   90DMSO     C  893   1.910   3.180   0.816
   90DMSO     O  894   1.994   3.355   1.017
   90DMSO     H  895   1.772   3.198   1.155
   90DMSO     H  896   1.722   3.100   1.016
   90DMSO     H  897   1.889   3.086   1.080
   90DMSO     H  898   1.987   3.109   0.852
   90DMSO     H  899   1.825   3.125   0.777
   90DMSO     H  900   1.952   3.241   0.736
   91DMSO     C  901   2.178   2.459   0.325
   91DMSO     S  902   2.167   2.583   0.192
   91DMSO     C  903   2.185   2.466   0.056
   91DMSO     O  904   2.305   2.674   0.199
   91DMSO     H  905   2.174   2.510   0.421
   91DMSO     H  906   2.094   2.389   0.317
   91DMSO     H  907   2.273   2.404   0.316
   91DMSO     H  908   2.279   2.410   0.067
   91DMSO     H  909   2.101   2.396   0.056
   91DMSO     H  910   2.186   2.521  -0.038
   92DMSO     C  911   0.188   1.758   1.269
   92DMSO     S  912   0.154   1.682   1.430
   92DMSO     C  913   0.038   1.808   1.485
   92DMSO     O  914   0.292   1.698   1.521
   92DMSO     H  915   0.263   1.698   1.217
   92DMSO     H  916   0.097   1.760   1.209
   92DMSO     H  917   0.226   1.860   1.283
   92DMSO     H  918   0.086   1.907   1.484
   92DMSO     H  919  -0.050   1.809   1.421
   92DMSO     H  920   0.006   1.785   1.587
   93DMSO     C  921   1.406   2.947   3.730
   93DMSO     S  922   1.297   3.048   3.626
   93DMSO     C  923   1.185   2.915   3.580
   93DMSO     O  924   1.384   3.089   3.491
   93DMSO     H  925   1.487   3.009   3.767
   93DMSO     H  926   1.349   2.908   3.815
   93DMSO     H  927   1.446   2.863   3.671
   93DMSO     H  928   1.241   2.833   3.532
   93DMSO     H  929   1.134   2.877   3.668
   93DMSO     H  930   1.110   2.953   3.510
   94DMSO     C  931   0.771   2.547   2.187
   94DMSO     S  932   0.727   2.481   2.024
   94DMSO     C  933   0.846   2.579   1.931
   94DMSO     O  934   0.575   2.538   1.988
   94DMSO     H  935   0.706   2.503   2.262
   94DMSO     H  936   0.875   2.521   2.210
   94DMSO     H  937   0.760   2.657   2.187
   94DMSO     H  938   0.830   2.686   1.949
   94DMSO     H  939   0.947   2.552   1.961
   94DMSO     H  940   0.834   2.558   1.825
   95DMSO     C  941   1.846   0.625   2.685
   95DMSO     S  942   1.755   0.627   2.528
   95DMSO     C  943   1.900   0.639   2.422
   95DMSO     O  944   1.675   0.772   2.521
   95DMSO     H  945   1.775   0.622   2.767
   95DMSO     H  946   1.909   0.536   2.689
   95DMSO     H  947   1.909   0.715   2.693
   95DMSO     H  948   1.959   0.728   2.449
   95DMSO     H  949   1.962   0.550   2.434
   95DMSO     H  950   1.868   0.647   2.318
   96DMSO     C  951   0.380   2.325   0.999
   96DMSO     S  952   0.467   2.253   0.857
   96DMSO     C  953   0.402   2.368   0.735
   96DMSO     O  954   0.397   2.105   0.828
   96DMSO     H  955   0.402   2.266   1.087
   96DMSO     H  956   0.415   2.427   1.015
   96DMSO     H  957   0.272   2.325   0.980
   96DMSO     H  958   0.292   2.366   0.734
   96DMSO     H  959   0.436   2.469   0.757
   96DMSO     H  960   0.439   2.340   0.636
   97DMSO     C  961   1.191   1.445   3.204
   97DMSO     S  962   1.071   1.378   3.086
   97DMSO     C  963   1.012   1.538   3.026
   97DMSO     O  964   0.949   1.310   3.175
   97DMSO     H  965   1.238   1.363   3.258
   97DMSO     H  966   1.268   1.501   3.150
   97DMSO     H  967   1.140   1.512   3.275
   97DMSO     H  968   0.974   1.598   3.110
   97DMSO     H  969   1.094   1.591   2.977
   97DMSO     H  970   0.932   1.521   2.954
   98DMSO     C  971   2.632   1.622   1.878
   98DMSO     S  972   2.635   1.649   2.058
   98DMSO     C  973   2.518   1.518   2.099
   98DMSO     O  974   2.560   1.794   2.086
   98DMSO     H  975   2.695   1.695   1.830
   98DMSO     H  976   2.670   1.522   1.856
   98DMSO     H  977   2.529   1.631   1.841
   98DMSO     H  978   2.423   1.535   2.046
   98DMSO     H  979   2.559   1.421   2.071
   98DMSO     H  980   2.500   1.519   2.207
   99DMSO     C  981   2.895   1.297   1.599
   99DMSO     S  982   2.777   1.422   1.541
   99DMSO     C  983   2.686   1.311   1.431
   99DMSO     O  984   2.862   1.528   1.446
   99DMSO     H  985   2.966   1.344   1.666
   99DMSO     H  986   2.841   1.218   1.653
   99DMSO     H  987   2.948   1.253   1.514
   99DMSO     H  988   2.754   1.266   1.357
   99DMSO     H  989   2.638   1.233   1.489
   99DMSO     H  990   2.609   1.369   1.379
  100DMSO     C  991   1.058   1.556   1.234
  100DMSO     S  992   1.096   1.443   1.097
  100DMSO     C  993   0.984   1.519   0.979
  100DMSO     O  994   1.034   1.295   1.137
  100DMSO     H  995   1.113   1.525   1.322
  100DMSO     H  996   1.087   1.658   1.207
  100DMSO     H  997   0.950   1.553   1.255
  100DMSO     H  998   0.881   1.519   1.018
  100DMSO     H  999   1.015   1.622   0.958
  100DMSO     H 1000   0.987   1.463   0.885
  101DMSO     C 1001   2.313   2.416   1.155
  101DMSO     S 1002   2.287   2.541   1.284
  101DMSO     C 1003   2.293   2.426   1.423
  101DMSO     O 1004   2.130   2.594   1.270
  101DMSO     H 1005   2.308   2.465   1.058
  101DMSO     H 1006   2.411   2.370   1.168
  101DMSO     H 1007   2.235   2.339   1.162
  101DMSO     H 1008   2.217   2.348   1.411
  101DMSO     H 1009   2.392   2.380   1.428
  101DMSO     H 1010   2.275   2.481   1.515
  102DMSO     C 1011   2.982   0.683   3.511
  102DMSO     S 1012   2.894   0.608   3.371
  102DMSO     C 1013   2.758   0.542   3.469
  102DMSO     O 1014   2.985   0.480   3.318
  102DMSO     H 1015   3.074   0.727   3.474
  102DMSO     H 1016   2.920   0.761   3.556
  102DMSO     H 1017   3.005   0.606   3.585
  102DMSO     H 1018   2.796   0.475   3.547
  102DMSO     H 1019   2.702   0.623   3.515
  102DMSO     H 1020   2.691   0.486   3.403
  103DMSO     C 1021   1.095   0.214   1.060
  103DMSO     S 1022   1.227   0.200   1.183
  103DMSO     C 1023   1.302   0.053   1.113
  103DMSO     O 1024   1.154   0.156   1.326
  103DMSO     H 1025   1.031   0.298   1.086
  103DMSO     H 1026   1.139   0.233   0.961
  103DMSO     H 1027   1.036   0.122   1.057
  103DMSO     H 1028   1.229  -0.029   1.106
  103DMSO     H 1029   1.341   0.075   1.013
  103DMSO     H 1030   1.386   0.021   1.177
  104DMSO     C 1031   0.801   0.310   2.806
  104DMSO     S 1032   0.702   0.334   2.956
  104DMSO     C 1033   0.840   0.336   3.071
  104DMSO     O 1034   0.618   0.193   2.981
  104DMSO     H 1035   0.735   0.301   2.721
  104DMSO     H 1036   0.867   0.396   2.792
  104DMSO     H 1037   0.862   0.219   2.816
  104DMSO     H 1038   0.899   0.244   3.062
  104DMSO     H 1039   0.905   0.422   3.049
  104DMSO     H 1040   0.802   0.346   3.173
  105DMSO     C 1041   3.540   2.410   0.538
  105DMSO     S 1042   3.464   2.271   0.626
  105DMSO     C 1043   3.293   2.323   0.597
  105DMSO     O 1044   3.496   2.292   0.787
  105DMSO     H 1045   3.648   2.402   0.546
  105DMSO     H 1046   3.512   2.407   0.432
  105DMSO     H 1047   3.507   2.505   0.582
  105DMSO     H 1048   3.277   2.424   0.637
  105DMSO     H 1049   3.272   2.322   0.490
  105DMSO     H 1050   3.226   2.253   0.648
  106DMSO     C 1051   3.487   1.060   0.485
  106DMSO     S 1052   3.523   1.224   0.554
  106DMSO     C 1053   3.499   1.315   0.400
  106DMSO     O 1054   3.685   1.227   0.589
  106DMSO     H 1055   3.500   0.986   0.562
  106DMSO     H 1056   3.383   1.058   0.449
  106DMSO     H 1057   3.555   1.040   0.401
  106DMSO     H 1058   3.566   1.276   0.322
  106DMSO     H 1059   3.396   1.306   0.367
  106DMSO     H 1060   3.522   1.421   0.418
  107DMSO     C 1061   1.845   3.871   3.044
  107DMSO     S 1062   1.836   3.692   3.014
  107DMSO     C 1063   1.955   3.690   2.878
  107DMSO     O 1064   1.686   3.662   2.950
  107DMSO     H 1065   1.775   3.897   3.122
  107DMSO     H 1066   1.946   3.898   3.075
  107DMSO     H 1067   1.820   3.926   2.952
  107DMSO     H 1068   1.922   3.758   2.798
  107DMSO     H 1069   2.053   3.722   2.914
  107DMSO     H 1070   1.962   3.588   2.839
  108DMSO     C 1071   3.499   2.939   3.120
  108DMSO     S 1072   3.321   2.959   3.089
  108DMSO     C 1073   3.327   2.918   2.914
  108DMSO     O 1074   3.287   3.121   3.102
  108DMSO     H 1075   3.519   2.964   3.224
  108DMSO     H 1076   3.528   2.835   3.102
  108DMSO     H 1077   3.555   3.005   3.053
  108DMSO     H 1078   3.396   2.986   2.862
  108DMSO     H 1079   3.361   2.815   2.901
  108DMSO     H 1080   3.227   2.928   2.871
  109DMSO     C 1081   1.535   0.714   0.693
  109DMSO     S 1082   1.682   0.625   0.751
  109DMSO     C 1083   1.644   0.637   0.927
  109DMSO     O 1084   1.813   0.723   0.721
  109DMSO     H 1085   1.539   0.723   0.585
  109DMSO     H 1086   1.445   0.658   0.721
  109DMSO     H 1087   1.532   0.814   0.739
  109DMSO     H 1088   1.633   0.742   0.956
  109DMSO     H 1089   1.552   0.583   0.948
  109DMSO     H 1090   1.725   0.591   0.984
  110DMSO     C 1091   3.030   3.722   3.674
  110DMSO     S 1092   3.014   3.562   3.757
  110DMSO     C 1093   3.129   3.598   3.891
  110DMSO     O 1094   3.085   3.449   3.659
  110DMSO     H 1095   2.970   3.722   3.584
  110DMSO     H 1096   2.994   3.802   3.740
  110DMSO     H 1097   3.136   3.741   3.649
  110DMSO     H 1098   3.227   3.625   3.850
  110DMSO     H 1099   3.091   3.681   3.951
  110DMSO     H 1100   3.139   3.510   3.954
  111DMSO     C 1101   2.195   1.610   3.274
  111DMSO     S 1102   2.096   1.587   3.124
  111DMSO     C 1103   2.229   1.621   3.008
  111DMSO     O 1104   1.990   1.714   3.117
  111DMSO     H 1105   2.131   1.598   3.361
  111DMSO     H 1106   2.275   1.534   3.277
  111DMSO     H 1107   2.240   1.710   3.274
  111DMSO     H 1108   2.272   1.720   3.027
  111DMSO     H 1109   2.307   1.545   3.018
  111DMSO     H 1110   2.189   1.617   2.906
  112DMSO     C 1111   2.809   2.669   0.046
  112DMSO     S 1112   2.714   2.703   0.197
  112DMSO     C 1113   2.553   2.660   0.128
  112DMSO     O 1114   2.717   2.867   0.220
  112DMSO     H 1115   2.913   2.693   0.064
  112DMSO     H 1116   2.801   2.562   0.021
  112DMSO     H 1117   2.770   2.729  -0.037
  112DMSO     H 1118   2.532   2.721   0.039
  112DMSO     H 1119   2.552   2.554   0.101
  112DMSO     H 1120   2.476   2.678   0.204
  113DMSO     C 1121   1.754   1.987   3.302
  113DMSO     S 1122   1.910   2.078   3.284
  113DMSO     C 1123   2.006   1.937   3.226
  113DMSO     O 1124   1.962   2.115   3.437
  113DMSO     H 1125   1.678   2.054   3.342
  113DMSO     H 1126   1.721   1.950   3.204
  113DMSO     H 1127   1.768   1.902   3.370
  113DMSO     H 1128   2.003   1.855   3.299
  113DMSO     H 1129   1.967   1.902   3.130
  113DMSO     H 1130   2.110   1.969   3.212
  114DMSO     C 1131   1.830   3.681   2.408
  114DMSO     S 1132   1.782   3.788   2.269
  114DMSO     C 1133   1.869   3.694   2.142
  114DMSO     O 1134   1.864   3.932   2.289
  114DMSO     H 1135   1.790   3.723   2.500
  114DMSO     H 1136   1.787   3.581   2.393
  114DMSO     H 1137   1.939   3.674   2.414
  114DMSO     H 1138   1.976   3.686   2.167
  114DMSO     H 1139   1.826   3.594   2.135
  114DMSO     H 1140   1.858   3.745   2.046
  115DMSO     C 1141   0.761   2.704   1.209
  115DMSO     S 1142   0.687   2.648   1.365
  115DMSO     C 1143   0.606   2.804   1.404
  115DMSO     O 1144   0.811   2.627   1.473
  115DMSO     H 1145   0.821   2.624   1.167
  115DMSO     H 1146   0.681   2.730   1.138
  115DMSO     H 1147   0.824   2.793   1.227
  115DMSO     H 1148   0.680   2.885   1.409
  115DMSO     H 1149   0.531   2.827   1.329
  115DMSO     H 1150   0.556   2.794   1.502
  116DMSO     C 1151   2.848   0.720   1.297
  116DMSO     S 1152   2.793   0.734   1.124
  116DMSO     C 1153   2.936   0.828   1.067
  116DMSO     O 1154   2.662   0.835   1.123
  116DMSO     H 1155   2.772   0.668   1.354
  116DMSO     H 1156   2.941   0.663   1.301
  116DMSO     H 1157   2.864   0.820   1.339
  116DMSO     H 1158   2.946   0.921   1.126
  116DMSO     H 1159   3.027   0.769   1.078
  116DMSO     H 1160   2.922   0.853   0.962
  117DMSO     C 1161   0.612   0.962   0.523
  117DMSO     S 1162   0.554   0.802   0.460
  117DMSO     C 1163   0.686   0.704   0.534
  117DMSO     O 1164   0.579   0.803   0.296
  117DMSO     H 1165   0.547   1.041   0.486
  117DMSO     H 1166   0.608   0.962   0.633
  117DMSO     H 1167   0.715   0.980   0.490
  117DMSO     H 1168   0.784   0.741   0.500
  117DMSO     H 1169   0.680   0.711   0.643
  117DMSO     H 1170   0.674   0.600   0.504
  118DMSO     C 1171   2.981   0.374   2.691
  118DMSO     S 1172   3.051   0.522   2.769
  118DMSO     C 1173   3.008   0.476   2.938
  118DMSO     O 1174   2.954   0.650   2.726
  118DMSO     H 1175   2.992   0.382   2.583
  118DMSO     H 1176   3.035   0.285   2.726
  118DMSO     H 1177   2.875   0.365   2.717
  118DMSO     H 1178   2.900   0.460   2.947
  118DMSO     H 1179   3.061   0.386   2.966
  118DMSO     H 1180   3.038   0.557   3.005
  119DMSO     C 1181   1.387   2.305   3.395
  119DMSO     S 1182   1.221   2.296   3.468
  119DMSO     C 1183   1.207   2.116   3.459
  119DMSO     O 1184   1.116   2.360   3.357
  119DMSO     H 1185   1.416   2.409   3.387
  119DMSO     H 1186   1.459   2.253   3.460
  119DMSO     H 1187   1.387   2.258   3.296
  119DMSO     H 1188   1.220   2.082   3.355
  119DMSO     H 1189   1.283   2.070   3.522
  119DMSO     H 1190   1.108   2.087   3.495
  120DMSO     C 1191   2.614   3.698   3.332
  120DMSO     S 1192   2.502   3.732   3.192
  120DMSO     C 1193   2.387   3.835   3.285
  120DMSO     O 1194   2.425   3.589   3.157
  120DMSO     H 1195   2.692   3.631   3.298
  120DMSO     H 1196   2.659   3.792   3.366
  120DMSO     H 1197   2.557   3.652   3.414
  120DMSO     H 1198   2.347   3.779   3.371
  120DMSO     H 1199   2.438   3.924   3.321
  120DMSO     H 1200   2.305   3.864   3.219
  121DMSO     C 1201   1.644   3.746   3.683
  121DMSO     S 1202   1.726   3.659   3.547
  121DMSO     C 1203   1.684   3.778   3.419
  121DMSO     O 1204   1.638   3.521   3.518
  121DMSO     H 1205   1.653   3.687   3.774
  121DMSO     H 1206   1.692   3.843   3.698
  121DMSO     H 1207   1.538   3.761   3.659
  121DMSO     H 1208   1.575   3.791   3.414
  121DMSO     H 1209   1.730   3.874   3.441
  121DMSO     H 1210   1.721   3.742   3.323
  122DMSO     C 1211   1.170   1.230   2.358
  122DMSO     S 1212   1.224   1.103   2.476
  122DMSO     C 1213   1.277   1.219   2.604
  122DMSO     O 1214   1.359   1.032   2.413
  122DMSO     H 1215   1.136   1.181   2.267
  122DMSO     H 1216   1.088   1.287   2.400
  122DMSO     H 1217   1.254   1.297   2.335
  122DMSO     H 1218   1.354   1.287   2.563
  122DMSO     H 1219   1.192   1.277   2.640
  122DMSO     H 1220   1.320   1.162   2.687
  123DMSO     C 1221   0.462   3.675   3.611
  123DMSO     S 1222   0.584   3.689   3.478
  123DMSO     C 1223   0.696   3.564   3.542
  123DMSO     O 1224   0.658   3.836   3.496
  123DMSO     H 1225   0.383   3.748   3.594
  123DMSO     H 1226   0.418   3.575   3.610
  123DMSO     H 1227   0.510   3.693   3.708
  123DMSO     H 1228   0.728   3.589   3.645
  123DMSO     H 1229   0.647   3.466   3.543
  123DMSO     H 1230   0.784   3.558   3.478
  124DMSO     C 1231   0.756   1.406   2.513
  124DMSO     S 1232   0.842   1.494   2.379
  124DMSO     C 1233   0.770   1.396   2.245
  124DMSO     O 1234   1.002   1.454   2.390
  124DMSO     H 1235   0.789   1.448   2.608
  124DMSO     H 1236   0.648   1.420   2.503
  124DMSO     H 1237   0.780   1.299   2.509
  124DMSO     H 1238   0.793   1.289   2.259
  124DMSO     H 1239   0.662   1.410   2.242
  124DMSO     H 1240   0.813   1.430   2.150
  125DMSO     C 1241   1.551   2.655   1.378
  125DMSO     S 1242   1.572   2.827   1.432
  125DMSO     C 1243   1.655   2.884   1.283
  125DMSO     O 1244   1.684   2.825   1.554
  125DMSO     H 1245   1.504   2.598   1.458
  125DMSO     H 1246   1.486   2.653   1.290
  125DMSO     H 1247   1.648   2.612   1.353
  125DMSO     H 1248   1.745   2.824   1.264
  125DMSO     H 1249   1.587   2.875   1.197
  125DMSO     H 1250   1.683   2.989   1.295
  126DMSO     C 1251   2.462   2.134   3.726
  126DMSO     S 1252   2.514   2.264   3.841
  126DMSO     C 1253   2.422   2.397   3.761
  126DMSO     O 1254   2.676   2.291   3.813
  126DMSO     H 1255   2.511   2.041   3.753
  126DMSO     H 1256   2.354   2.120   3.732
  126DMSO     H 1257   2.489   2.162   3.623
  126DMSO     H 1258   2.452   2.406   3.656
  126DMSO     H 1259   2.315   2.377   3.767
  126DMSO     H 1260   2.443   2.491   3.814
  127DMSO     C 1261   3.072   3.250   0.061
  127DMSO     S 1262   2.948   3.120   0.034
  127DMSO     C 1263   2.898   3.106   0.207
  127DMSO     O 1264   3.031   2.981  -0.005
  127DMSO     H 1265   3.121   3.272  -0.033
  127DMSO     H 1266   3.023   3.340   0.098
  127DMSO     H 1267   3.146   3.215   0.135
  127DMSO     H 1268   2.984   3.082   0.270
  127DMSO     H 1269   2.853   3.200   0.240
  127DMSO     H 1270   2.823   3.026   0.216
  128DMSO     C 1271   0.356   1.734   0.098
  128DMSO     S 1272   0.289   1.569   0.063
  128DMSO     C 1273   0.116   1.616   0.077
  128DMSO     O 1274   0.326   1.473   0.193
  128DMSO     H 1275   0.465   1.729   0.099
  128DMSO     H 1276   0.325   1.804   0.020
  128DMSO     H 1277   0.320   1.769   0.196
  128DMSO     H 1278   0.096   1.660   0.176
  128DMSO     H 1279   0.091   1.689  -0.000
  128DMSO     H 1280   0.054   1.527   0.063
  129DMSO     C 1281   0.413   3.097   2.637
  129DMSO     S 1282   0.266   3.151   2.729
  129DMSO     C 1283   0.355   3.206   2.875
  129DMSO     O 1284   0.181   3.015   2.769
  129DMSO     H 1285   0.381   3.054   2.542
  129DMSO     H 1286   0.478   3.183   2.618
  129DMSO     H 1287   0.467   3.022   2.695
  129DMSO     H 1288   0.414   3.123   2.917
  129DMSO     H 1289   0.421   3.288   2.850
  129DMSO     H 1290   0.283   3.240   2.950
  130DMSO     C 1291   0.915   3.333   2.804
  130DMSO     S 1292   0.938   3.181   2.899
  130DMSO     C 1293   0.930   3.259   3.062
  130DMSO     O 1294   1.095   3.132   2.875
  130DMSO     H 1295   0.920   3.310   2.698
  130DMSO     H 1296   0.816   3.376   2.827
  130DMSO     H 1297   0.992   3.406   2.831
  130DMSO     H 1298   1.007   3.337   3.070
  130DMSO     H 1299   0.832   3.303   3.077
  130DMSO     H 1300   0.947   3.182   3.139
  131DMSO     C 1301   2.481   3.782   2.721
  131DMSO     S 1302   2.421   3.665   2.847
  131DMSO     C 1303   2.567   3.674   2.952
  131DMSO     O 1304   2.419   3.515   2.777
  131DMSO     H 1305   2.408   3.789   2.642
  131DMSO     H 1306   2.495   3.880   2.767
  131DMSO     H 1307   2.577   3.746   2.681
  131DMSO     H 1308   2.657   3.647   2.895
  131DMSO     H 1309   2.579   3.775   2.991
  131DMSO     H 1310   2.555   3.605   3.036
  132DMSO     C 1311   3.532   2.020   1.739
  132DMSO     S 1312   3.592   1.850   1.716
  132DMSO     C 1313   3.749   1.873   1.801
  132DMSO     O 1314   3.624   1.831   1.554
  132DMSO     H 1315   3.436   2.031   1.690
  132DMSO     H 1316   3.520   2.040   1.846
  132DMSO     H 1317   3.605   2.090   1.696
  132DMSO     H 1318   3.806   1.954   1.754
  132DMSO     H 1319   3.731   1.897   1.906
  132DMSO     H 1320   3.806   1.780   1.796
  133DMSO     C 1321   1.238   0.454   2.774
  133DMSO     S 1322   1.217   0.341   2.633
  133DMSO     C 1323   1.340   0.221   2.687
  133DMSO     O 1324   1.277   0.419   2.500
  133DMSO     H 1325   1.174   0.540   2.760
  133DMSO     H 1326   1.210   0.402   2.866
  133DMSO     H 1327   1.343   0.485   2.780
  133DMSO     H 1328   1.437   0.269   2.699
  133DMSO     H 1329   1.309   0.176   2.781
  133DMSO     H 1330   1.347   0.142   2.611
  134DMSO     C 1331   1.098   1.548   3.640
  134DMSO     S 1332   1.221   1.499   3.764
  134DMSO     C 1333   1.111   1.514   3.906
  134DMSO     O 1334   1.332   1.621   3.773
  134DMSO     H 1335   1.145   1.550   3.542
  134DMSO     H 1336   1.016   1.475   3.639
  134DMSO     H 1337   1.058   1.647   3.665
  134DMSO     H 1338   1.070   1.616   3.912
  134DMSO     H 1339   1.030   1.442   3.898
  134DMSO     H 1340   1.168   1.492   3.997
  135DMSO     C 1341   1.828   1.244   1.571
  135DMSO     S 1342   1.715   1.360   1.489
  135DMSO     C 1343   1.600   1.374   1.627
  135DMSO     O 1344   1.639   1.276   1.368
  135DMSO     H 1345   1.907   1.217   1.502
  135DMSO     H 1346   1.872   1.292   1.659
  135DMSO     H 1347   1.773   1.154   1.603
  135DMSO     H 1348   1.561   1.275   1.654
  135DMSO     H 1349   1.650   1.419   1.713
  135DMSO     H 1350   1.517   1.439   1.597
  136DMSO     C 1351   0.646   0.581   1.042
  136DMSO     S 1352   0.735   0.445   0.960
  136DMSO     C 1353   0.630   0.313   1.024
  136DMSO     O 1354   0.883   0.433   1.035
  136DMSO     H 1355   0.696   0.674   1.020
  136DMSO     H 1356   0.543   0.585   1.004
  136DMSO     H 1357   0.644   0.563   1.151
  136DMSO     H 1358   0.629   0.315   1.134
  136DMSO     H 1359   0.529   0.325   0.986
  136DMSO     H 1360   0.670   0.217   0.990
  137DMSO     C 1361   3.732   3.126   1.415
  137DMSO     S 1362   3.619   3.061   1.541
  137DMSO     C 1363   3.725   3.101   1.682
  137DMSO     O 1364   3.619   2.895   1.525
  137DMSO     H 1365   3.689   3.107   1.317
  137DMSO     H 1366   3.744   3.234   1.429
  137DMSO     H 1367   3.830   3.076   1.423
  137DMSO     H 1368   3.823   3.054   1.671
  137DMSO     H 1369   3.737   3.209   1.689
  137DMSO     H 1370   3.677   3.065   1.774
  138DMSO     C 1371   2.952   1.914   3.710
  138DMSO     S 1372   3.016   2.039   3.825
  138DMSO     C 1373   2.858   2.074   3.904
  138DMSO     O 1374   3.057   2.172   3.734
  138DMSO     H 1375   3.033   1.880   3.646
  138DMSO     H 1376   2.913   1.829   3.767
  138DMSO     H 1377   2.871   1.957   3.649
  138DMSO     H 1378   2.784   2.106   3.829
  138DMSO     H 1379   2.821   1.985   3.956
  138DMSO     H 1380   2.872   2.154   3.978
  139DMSO     C 1381   1.887   1.115   0.659
  139DMSO     S 1382   1.921   1.231   0.795
  139DMSO     C 1383   1.882   1.116   0.928
  139DMSO     O 1384   1.802   1.346   0.792
  139DMSO     H 1385   1.901   1.167   0.565
  139DMSO     H 1386   1.956   1.031   0.665
  139DMSO     H 1387   1.784   1.078   0.667
  139DMSO     H 1388   1.779   1.079   0.917
  139DMSO     H 1389   1.951   1.032   0.926
  139DMSO     H 1390   1.891   1.167   1.024
  140DMSO     C 1391   2.992   2.001   0.793
  140DMSO     S 1392   2.983   1.998   0.612
  140DMSO     C 1393   2.874   2.140   0.596
  140DMSO     O 1394   2.896   1.863   0.570
  140DMSO     H 1395   3.053   1.918   0.826
  140DMSO     H 1396   3.039   2.095   0.825
  140DMSO     H 1397   2.891   1.994   0.835
  140DMSO     H 1398   2.781   2.124   0.652
  140DMSO     H 1399   2.923   2.230   0.634
  140DMSO     H 1400   2.850   2.155   0.490
  141DMSO     C 1401   2.591   3.314   2.516
  141DMSO     S 1402   2.687   3.389   2.651
  141DMSO     C 1403   2.655   3.258   2.771
  141DMSO     O 1404   2.603   3.523   2.701
  141DMSO     H 1405   2.593   3.381   2.431
  141DMSO     H 1406   2.637   3.219   2.487
  141DMSO     H 1407   2.488   3.297   2.549
  141DMSO     H 1408   2.547   3.244   2.785
  141DMSO     H 1409   2.699   3.164   2.736
  141DMSO     H 1410   2.702   3.285   2.866
  142DMSO     C 1411   3.728   1.767   3.061
  142DMSO     S 1412   3.585   1.823   3.158
  142DMSO     C 1413   3.557   1.666   3.242
  142DMSO     O 1414   3.460   1.847   3.052
  142DMSO     H 1415   3.760   1.848   2.997
  142DMSO     H 1416   3.809   1.740   3.128
  142DMSO     H 1417   3.699   1.680   3.000
  142DMSO     H 1418   3.541   1.586   3.168
  142DMSO     H 1419   3.643   1.641   3.304
  142DMSO     H 1420   3.468   1.676   3.306
  143DMSO     C 1421   1.009   2.336   2.795
  143DMSO     S 1422   0.989   2.368   2.617
  143DMSO     C 1423   0.811   2.394   2.624
  143DMSO     O 1424   1.015   2.224   2.539
  143DMSO     H 1425   1.113   2.312   2.815
  143DMSO     H 1426   0.982   2.425   2.852
  143DMSO     H 1427   0.945   2.252   2.825
  143DMSO     H 1428   0.760   2.306   2.666
  143DMSO     H 1429   0.788   2.481   2.685
  143DMSO     H 1430   0.774   2.411   2.522
  144DMSO     C 1431   0.477   1.979   1.343
  144DMSO     S 1432   0.627   1.922   1.428
  144DMSO     C 1433   0.579   1.980   1.592
  144DMSO     O 1434   0.752   2.018   1.376
  144DMSO     H 1435   0.487   1.957   1.237
  144DMSO     H 1436   0.390   1.926   1.383
  144DMSO     H 1437   0.465   2.087   1.359
  144DMSO     H 1438   0.559   2.088   1.590
  144DMSO     H 1439   0.490   1.927   1.625
  144DMSO     H 1440   0.660   1.960   1.662
  145DMSO     C 1441   2.380   3.538   1.850
  145DMSO     S 1442   2.438   3.610   2.006
  145DMSO     C 1443   2.568   3.489   2.036
  145DMSO     O 1444   2.318   3.584   2.118
  145DMSO     H 1445   2.295   3.595   1.814
  145DMSO     H 1446   2.461   3.543   1.776
  145DMSO     H 1447   2.352   3.433   1.866
  145DMSO     H 1448   2.526   3.388   2.039
  145DMSO     H 1449   2.643   3.496   1.957
  145DMSO     H 1450   2.615   3.512   2.132
  146DMSO     C 1451   0.868   1.557   1.577
  146DMSO     S 1452   0.776   1.714   1.578
  146DMSO     C 1453   0.784   1.738   1.757
  146DMSO     O 1454   0.619   1.678   1.539
  146DMSO     H 1455   0.872   1.520   1.475
  146DMSO     H 1456   0.969   1.573   1.613
  146DMSO     H 1457   0.817   1.484   1.641
  146DMSO     H 1458   0.739   1.652   1.809
  146DMSO     H 1459   0.887   1.749   1.788
  146DMSO     H 1460   0.728   1.828   1.783
  147DMSO     C 1461   2.284   2.699   1.932
  147DMSO     S 1462   2.227   2.555   1.838
  147DMSO     C 1463   2.364   2.448   1.883
  147DMSO     O 1464   2.244   2.593   1.677
  147DMSO     H 1465   2.216   2.782   1.916
  147DMSO     H 1466   2.286   2.675   2.039
  147DMSO     H 1467   2.385   2.727   1.900
  147DMSO     H 1468   2.460   2.494   1.854
  147DMSO     H 1469   2.364   2.430   1.991
  147DMSO     H 1470   2.353   2.352   1.832
  148DMSO     C 1471   3.331   3.867   1.639
  148DMSO     S 1472   3.169   3.787   1.658
  148DMSO     C 1473   3.209   3.641   1.560
  148DMSO     O 1474   3.061   3.878   1.571
  148DMSO     H 1475   3.329   3.963   1.689
  148DMSO     H 1476   3.408   3.804   1.686
  148DMSO     H 1477   3.354   3.880   1.533
  148DMSO     H 1478   3.241   3.670   1.459
  148DMSO     H 1479   3.289   3.585   1.609
  148DMSO     H 1480   3.120   3.578   1.554
  149DMSO     C 1481   2.078   0.237   0.045
  149DMSO     S 1482   2.138   0.079  -0.020
  149DMSO     C 1483   2.136  -0.008   0.138
  149DMSO     O 1484   2.297   0.102  -0.062
  149DMSO     H 1485   2.075   0.309  -0.035
  149DMSO     H 1486   1.976   0.224   0.085
  149DMSO     H 1487   2.144   0.272   0.125
  149DMSO     H 1488   2.198   0.044   0.212
  149DMSO     H 1489   2.034  -0.015   0.175
  149DMSO     H 1490   2.175  -0.109   0.123
  150DMSO     C 1491   1.992   0.485   1.858
  150DMSO     S 1492   1.930   0.317   1.888
  150DMSO     C 1493   1.834   0.359   2.034
  150DMSO     O 1494   2.060   0.226   1.938
  150DMSO     H 1495   2.060   0.483   1.772
  150DMSO     H 1496   1.908   0.551   1.835
  150DMSO     H 1497   2.046   0.521   1.947
  150DMSO     H 1498   1.898   0.405   2.111
  150DMSO     H 1499   1.754   0.429   2.008
  150DMSO     H 1500   1.789   0.268   2.075
  151DMSO     C 1501   1.388   2.588   3.786
  151DMSO     S 1502   1.270   2.508   3.674
  151DMSO     C 1503   1.128   2.606   3.725
  151DMSO     O 1504   1.247   2.353   3.730
  151DMSO     H 1505   1.485   2.540   3.775
  151DMSO     H 1506   1.398   2.694   3.760
  151DMSO     H 1507   1.353   2.579   3.890
  151DMSO     H 1508   1.111   2.596   3.833
  151DMSO     H 1509   1.144   2.711   3.700
  151DMSO     H 1510   1.039   2.570   3.671
  152DMSO     C 1511  -0.006   0.280   3.654
  152DMSO     S 1512   0.126   0.211   3.759
  152DMSO     C 1513   0.083   0.305   3.907
  152DMSO     O 1514   0.270   0.271   3.701
  152DMSO     H 1515   0.004   0.239   3.554
  152DMSO     H 1516  -0.103   0.252   3.696
  152DMSO     H 1517   0.003   0.389   3.651
  152DMSO     H 1518   0.086   0.413   3.885
  152DMSO     H 1519  -0.016   0.277   3.941
  152DMSO     H 1520   0.156   0.282   3.985
  153DMSO     C 1521   2.649   0.937   2.379
  153DMSO     S 1522   2.486   1.014   2.397
  153DMSO     C 1523   2.391   0.872   2.340
  153DMSO     O 1524   2.475   1.132   2.280
  153DMSO     H 1525   2.725   1.010   2.405
  153DMSO     H 1526   2.656   0.851   2.446
  153DMSO     H 1527   2.663   0.903   2.275
  153DMSO     H 1528   2.424   0.842   2.239
  153DMSO     H 1529   2.405   0.788   2.408
  153DMSO     H 1530   2.285   0.898   2.338
  154DMSO     C 1531   3.329   1.046   2.637
  154DMSO     S 1532   3.414   0.899   2.572
  154DMSO     C 1533   3.303   0.779   2.648
  154DMSO     O 1534   3.560   0.889   2.651
  154DMSO     H 1535   3.384   1.134   2.606
  154DMSO     H 1536   3.228   1.050   2.596
  154DMSO     H 1537   3.325   1.041   2.747
  154DMSO     H 1538   3.300   0.793   2.757
  154DMSO     H 1539   3.203   0.790   2.607
  154DMSO     H 1540   3.339   0.678   2.625
  155DMSO     C 1541   1.163   0.801   0.296
  155DMSO     S 1542   1.032   0.900   0.373
  155DMSO     C 1543   1.132   0.962   0.509
  155DMSO     O 1544   0.921   0.793   0.436
  155DMSO     H 1545   1.122   0.749   0.210
  155DMSO     H 1546   1.244   0.867   0.263
  155DMSO     H 1547   1.202   0.729   0.369
  155DMSO     H 1548   1.174   0.878   0.567
  155DMSO     H 1549   1.213   1.023   0.471
  155DMSO     H 1550   1.069   1.023   0.575
  156DMSO     C 1551   2.314   1.388   0.092
  156DMSO     S 1552   2.162   1.438   0.176
  156DMSO     C 1553   2.219   1.603   0.221
  156DMSO     O 1554   2.151   1.349   0.315
  156DMSO     H 1555   2.304   1.285   0.058
  156DMSO     H 1556   2.331   1.452   0.005
  156DMSO     H 1557   2.399   1.396   0.161
  156DMSO     H 1558   2.311   1.596   0.281
  156DMSO     H 1559   2.238   1.662   0.131
  156DMSO     H 1560   2.141   1.653   0.280
  157DMSO     C 1561   2.299   1.773   1.344
  157DMSO     S 1562   2.396   1.926   1.358
  157DMSO     C 1563   2.323   1.980   1.514
  157DMSO     O 1564   2.342   2.029   1.239
  157DMSO     H 1565   2.324   1.724   1.250
  157DMSO     H 1566   2.323   1.707   1.427
  157DMSO     H 1567   2.192   1.797   1.346
  157DMSO     H 1568   2.214   1.989   1.504
  157DMSO     H 1569   2.347   1.908   1.592
  157DMSO     H 1570   2.366   2.077   1.541
  158DMSO     C 1571   2.831   3.786   1.938
  158DMSO     S 1572   2.900   3.642   1.850
  158DMSO     C 1573   2.847   3.694   1.686
  158DMSO     O 1574   2.807   3.511   1.893
  158DMSO     H 1575   2.848   3.773   2.044
  158DMSO     H 1576   2.882   3.876   1.904
  158DMSO     H 1577   2.724   3.794   1.917
  158DMSO     H 1578   2.739   3.709   1.683
  158DMSO     H 1579   2.898   3.787   1.658
  158DMSO     H 1580   2.875   3.616   1.614
  159DMSO     C 1581   3.620   0.241   0.716
  159DMSO     S 1582   3.460   0.286   0.641
  159DMSO     C 1583   3.359   0.189   0.755
  159DMSO     O 1584   3.454   0.212   0.493
  159DMSO     H 1585   3.699   0.287   0.658
  159DMSO     H 1586   3.624   0.278   0.819
  159DMSO     H 1587   3.631   0.132   0.715
  159DMSO     H 1588   3.389   0.083   0.752
  159DMSO     H 1589   3.370   0.227   0.856
  159DMSO     H 1590   3.254   0.197   0.725
  160DMSO     C 1591   0.670   2.122   3.668
  160DMSO     S 1592   0.560   2.070   3.533
  160DMSO     C 1593   0.663   2.133   3.400
  160DMSO     O 1594   0.424   2.166   3.542
  160DMSO     H 1595   0.623   2.097   3.763
  160DMSO     H 1596   0.765   2.069   3.660
  160DMSO     H 1597   0.687   2.230   3.662
  160DMSO     H 1598   0.681   2.241   3.413
  160DMSO     H 1599   0.758   2.080   3.398
  160DMSO     H 1600   0.612   2.116   3.304
  161DMSO     C 1601   0.251   3.772   3.033
  161DMSO     S 1602   0.096   3.835   3.105
  161DMSO     C 1603   0.148   3.816   3.277
  161DMSO     O 1604  -0.021   3.721   3.076
  161DMSO     H 1605   0.241   3.770   2.925
  161DMSO     H 1606   0.333   3.838   3.060
  161DMSO     H 1607   0.271   3.671   3.071
  161DMSO     H 1608   0.175   3.712   3.298
  161DMSO     H 1609   0.233   3.881   3.298
  161DMSO     H 1610   0.064   3.845   3.342
  162DMSO     C 1611   0.530   3.827   1.260
  162DMSO     S 1612   0.505   3.677   1.162
  162DMSO     C 1613   0.663   3.685   1.075
  162DMSO     O 1614   0.386   3.711   1.052
  162DMSO     H 1615   0.442   3.845   1.320
  162DMSO     H 1616   0.616   3.813   1.327
  162DMSO     H 1617   0.549   3.912   1.194
  162DMSO     H 1618   0.672   3.780   1.021
  162DMSO     H 1619   0.745   3.675   1.146
  162DMSO     H 1620   0.668   3.602   1.003
  163DMSO     C 1621   1.740   0.519   3.948
  163DMSO     S 1622   1.851   0.575   3.816
  163DMSO     C 1623   1.729   0.560   3.683
  163DMSO     O 1624   1.964   0.455   3.794
  163DMSO     H 1625   1.796   0.515   4.042
  163DMSO     H 1626   1.657   0.589   3.959
  163DMSO     H 1627   1.701   0.419   3.924
  163DMSO     H 1628   1.691   0.457   3.678
  163DMSO     H 1629   1.647   0.629   3.700
  163DMSO     H 1630   1.778   0.586   3.588
  164DMSO     C 1631   3.501   1.562   0.712
  164DMSO     S 1632   3.428   1.640   0.858
  164DMSO     C 1633   3.446   1.496   0.966
  164DMSO     O 1634   3.267   1.659   0.827
  164DMSO     H 1635   3.497   1.632   0.629
  164DMSO     H 1636   3.606   1.536   0.732
  164DMSO     H 1637   3.446   1.470   0.686
  164DMSO     H 1638   3.394   1.409   0.923
  164DMSO     H 1639   3.551   1.473   0.980
  164DMSO     H 1640   3.402   1.520   1.064
  165DMSO     C 1641   2.712   2.422   2.585
  165DMSO     S 1642   2.711   2.441   2.765
  165DMSO     C 1643   2.715   2.264   2.802
  165DMSO     O 1644   2.560   2.497   2.807
  165DMSO     H 1645   2.705   2.521   2.539
  165DMSO     H 1646   2.805   2.375   2.553
  165DMSO     H 1647   2.626   2.361   2.553
  165DMSO     H 1648   2.630   2.214   2.755
  165DMSO     H 1649   2.808   2.221   2.765
  165DMSO     H 1650   2.710   2.251   2.910
  166DMSO     C 1651   1.389   2.917   1.775
  166DMSO     S 1652   1.459   3.055   1.871
  166DMSO     C 1653   1.463   2.967   2.028
  166DMSO     O 1654   1.341   3.171   1.882
  166DMSO     H 1655   1.373   2.950   1.673
  166DMSO     H 1656   1.459   2.834   1.775
  166DMSO     H 1657   1.294   2.886   1.820
  166DMSO     H 1658   1.363   2.931   2.055
  166DMSO     H 1659   1.531   2.882   2.021
  166DMSO     H 1660   1.500   3.035   2.106
  167DMSO     C 1661   2.370   1.153   3.153
  167DMSO     S 1662   2.449   1.050   3.026
  167DMSO     C 1663   2.437   1.172   2.894
  167DMSO     O 1664   2.342   0.928   2.991
  167DMSO     H 1665   2.362   1.096   3.245
  167DMSO     H 1666   2.432   1.242   3.171
  167DMSO     H 1667   2.270   1.184   3.119
  167DMSO     H 1668   2.333   1.202   2.878
  167DMSO     H 1669   2.497   1.260   2.919
  167DMSO     H 1670   2.477   1.128   2.801
  168DMSO     C 1671   0.548   1.171   1.799
  168DMSO     S 1672   0.499   1.265   1.946
  168DMSO     C 1673   0.663   1.332   1.980
  168DMSO     O 1674   0.465   1.154   2.065
  168DMSO     H 1675   0.462   1.116   1.762
  168DMSO     H 1676   0.582   1.240   1.721
  168DMSO     H 1677   0.629   1.101   1.824
  168DMSO     H 1678   0.736   1.251   1.993
  168DMSO     H 1679   0.694   1.397   1.898
  168DMSO     H 1680   0.658   1.392   2.072
  169DMSO     C 1681   1.593   2.906   2.797
  169DMSO     S 1682   1.431   2.823   2.787
  169DMSO     C 1683   1.417   2.833   2.608
  169DMSO     O 1684   1.320   2.928   2.852
  169DMSO     H 1685   1.621   2.915   2.901
  169DMSO     H 1686   1.668   2.845   2.745
  169DMSO     H 1687   1.587   3.005   2.750
  169DMSO     H 1688   1.423   2.938   2.574
  169DMSO     H 1689   1.496   2.775   2.561
  169DMSO     H 1690   1.320   2.792   2.578
  170DMSO     C 1691   1.536   1.275   0.099
  170DMSO     S 1692   1.550   1.178   0.252
  170DMSO     C 1693   1.558   1.320   0.363
  170DMSO     O 1694   1.700   1.107   0.251
  170DMSO     H 1695   1.535   1.207   0.015
  170DMSO     H 1696   1.444   1.333   0.101
  170DMSO     H 1697   1.622   1.344   0.091
  170DMSO     H 1698   1.642   1.386   0.336
  170DMSO     H 1699   1.465   1.377   0.358
  170DMSO     H 1700   1.571   1.284   0.466
  171DMSO     C 1701   2.976   2.889   3.143
  171DMSO     S 1702   2.921   2.717   3.128
  171DMSO     C 1703   2.927   2.712   2.948
  171DMSO     O 1704   2.761   2.713   3.173
  171DMSO     H 1705   2.976   2.917   3.248
  171DMSO     H 1706   3.078   2.899   3.104
  171DMSO     H 1707   2.909   2.955   3.087
  171DMSO     H 1708   2.863   2.790   2.905
  171DMSO     H 1709   3.030   2.726   2.914
  171DMSO     H 1710   2.892   2.614   2.914
  172DMSO     C 1711   1.556   3.042   3.320
  172DMSO     S 1712   1.499   3.046   3.148
  172DMSO     C 1713   1.563   3.211   3.112
  172DMSO     O 1714   1.334   3.056   3.151
  172DMSO     H 1715   1.523   2.949   3.366
  172DMSO     H 1716   1.665   3.047   3.323
  172DMSO     H 1717   1.514   3.127   3.375
  172DMSO     H 1718   1.520   3.284   3.182
  172DMSO     H 1719   1.671   3.212   3.120
  172DMSO     H 1720   1.535   3.238   3.009
  173DMSO     C 1721   3.039   1.291   1.154
  173DMSO     S 1722   3.215   1.308   1.112
  173DMSO     C 1723   3.277   1.284   1.279
  173DMSO     O 1724   3.240   1.467   1.071
  173DMSO     H 1725   2.980   1.307   1.064
  173DMSO     H 1726   3.020   1.191   1.192
  173DMSO     H 1727   3.012   1.365   1.230
  173DMSO     H 1728   3.233   1.358   1.347
  173DMSO     H 1729   3.251   1.184   1.314
  173DMSO     H 1730   3.386   1.294   1.279
  174DMSO     C 1731   3.017   2.902   1.074
  174DMSO     S 1732   2.902   3.005   0.979
  174DMSO     C 1733   2.877   2.887   0.845
  174DMSO     O 1734   2.990   3.132   0.918
  174DMSO     H 1735   3.050   2.957   1.161
  174DMSO     H 1736   2.966   2.811   1.106
  174DMSO     H 1737   3.103   2.875   1.011
  174DMSO     H 1738   2.974   2.861   0.798
  174DMSO     H 1739   2.830   2.797   0.883
  174DMSO     H 1740   2.812   2.932   0.770
  175DMSO     C 1741   2.830   1.810   2.820
  175DMSO     S 1742   2.973   1.705   2.858
  175DMSO     C 1743   3.025   1.797   3.004
  175DMSO     O 1744   3.085   1.732   2.739
  175DMSO     H 1745   2.783   1.774   2.728
  175DMSO     H 1746   2.757   1.804   2.902
  175DMSO     H 1747   2.862   1.914   2.807
  175DMSO     H 1748   3.043   1.902   2.978
  175DMSO     H 1749   2.948   1.792   3.081
  175DMSO     H 1750   3.117   1.752   3.043
  176DMSO     C 1751   3.467   2.586   2.792
  176DMSO     S 1752   3.406   2.482   2.657
  176DMSO     C 1753   3.565   2.463   2.574
  176DMSO     O 1754   3.311   2.578   2.560
  176DMSO     H 1755   3.383   2.614   2.855
  176DMSO     H 1756   3.539   2.530   2.852
  176DMSO     H 1757   3.515   2.676   2.751
  176DMSO     H 1758   3.607   2.562   2.549
  176DMSO     H 1759   3.635   2.411   2.640
  176DMSO     H 1760   3.552   2.405   2.483
  177DMSO     C 1761   0.572   0.018   0.596
  177DMSO     S 1762   0.496   0.173   0.652
  177DMSO     C 1763   0.598   0.281   0.549
  177DMSO     O 1764   0.542   0.196   0.809
  177DMSO     H 1765   0.528  -0.065   0.651
  177DMSO     H 1766   0.554   0.004   0.489
  177DMSO     H 1767   0.681   0.021   0.615
  177DMSO     H 1768   0.705   0.265   0.571
  177DMSO     H 1769   0.579   0.261   0.444
  177DMSO     H 1770   0.572   0.385   0.570
  178DMSO     C 1771   1.411   1.802   3.162
  178DMSO     S 1772   1.530   1.930   3.112
  178DMSO     C 1773   1.446   1.975   2.959
  178DMSO     O 1774   1.671   1.851   3.071
  178DMSO     H 1775   1.445   1.756   3.254
  178DMSO     H 1776   1.313   1.848   3.179
  178DMSO     H 1777   1.402   1.726   3.083
  178DMSO     H 1778   1.435   1.887   2.895
  178DMSO     H 1779   1.348   2.016   2.982
  178DMSO     H 1780   1.506   2.051   2.908
  179DMSO     C 1781   0.188   0.834   2.107
  179DMSO     S 1782   0.180   0.941   2.254
  179DMSO     C 1783   0.280   0.835   2.360
  179DMSO     O 1784   0.024   0.936   2.310
  179DMSO     H 1785   0.128   0.879   2.028
  179DMSO     H 1786   0.292   0.826   2.074
  179DMSO     H 1787   0.149   0.735   2.132
  179DMSO     H 1788   0.235   0.735   2.367
  179DMSO     H 1789   0.381   0.826   2.320
  179DMSO     H 1790   0.285   0.879   2.460
  180DMSO     C 1791   2.064   1.912   1.332
  180DMSO     S 1792   2.030   1.769   1.439
  180DMSO     C 1793   1.963   1.865   1.576
  180DMSO     O 1794   2.177   1.708   1.486
  180DMSO     H 1795   2.111   1.877   1.240
  180DMSO     H 1796   1.971   1.963   1.307
  180DMSO     H 1797   2.131   1.982   1.384
  180DMSO     H 1798   2.037   1.939   1.611
  180DMSO     H 1799   1.873   1.917   1.545
  180DMSO     H 1800   1.939   1.797   1.658
  181DMSO     C 1801   1.785   1.348   1.137
  181DMSO     S 1802   1.866   1.493   1.211
  181DMSO     C 1803   1.969   1.400   1.327
  181DMSO     O 1804   1.751   1.573   1.299
  181DMSO     H 1805   1.713   1.381   1.064
  181DMSO     H 1806   1.860   1.286   1.087
  181DMSO     H 1807   1.736   1.289   1.216
  181DMSO     H 1808   1.906   1.338   1.392
  181DMSO     H 1809   2.039   1.337   1.272
  181DMSO     H 1810   2.026   1.471   1.388
  182DMSO     C 1811   3.772   3.093   3.475
  182DMSO     S 1812   3.878   3.208   3.567
  182DMSO     C 1813   3.866   3.123   3.725
  182DMSO     O 1814   3.794   3.351   3.580
  182DMSO     H 1815   3.761   3.129   3.373
  182DMSO     H 1816   3.819   2.994   3.473
  182DMSO     H 1817   3.674   3.087   3.523
  182DMSO     H 1818   3.761   3.114   3.755
  182DMSO     H 1819   3.910   3.023   3.717
  182DMSO     H 1820   3.921   3.180   3.800
  183DMSO     C 1821  -0.059   2.959   0.701
  183DMSO     S 1822   0.092   3.054   0.734
  183DMSO     C 1823   0.175   2.925   0.828
  183DMSO     O 1824   0.050   3.175   0.840
  183DMSO     H 1825  -0.129   3.021   0.647
  183DMSO     H 1826  -0.035   2.871   0.641
  183DMSO     H 1827  -0.104   2.926   0.796
  183DMSO     H 1828   0.114   2.895   0.914
  183DMSO     H 1829   0.194   2.839   0.765
  183DMSO     H 1830   0.271   2.964   0.864
  184DMSO     C 1831   0.885   2.424  -0.045
  184DMSO     S 1832   0.838   2.599  -0.048
  184DMSO     C 1833   0.769   2.602   0.119
  184DMSO     O 1834   0.711   2.613  -0.155
  184DMSO     H 1835   0.927   2.398  -0.142
  184DMSO     H 1836   0.961   2.408   0.032
  184DMSO     H 1837   0.798   2.362  -0.024
  184DMSO     H 1838   0.689   2.527   0.128
  184DMSO     H 1839   0.847   2.582   0.192
  184DMSO     H 1840   0.728   2.702   0.138
  185DMSO     C 1841   1.981   2.415   0.845
  185DMSO     S 1842   2.157   2.385   0.882
  185DMSO     C 1843   2.207   2.360   0.711
  185DMSO     O 1844   2.165   2.238   0.958
  185DMSO     H 1845   1.928   2.429   0.939
  185DMSO     H 1846   1.972   2.506   0.785
  185DMSO     H 1847   1.940   2.330   0.791
  185DMSO     H 1848   2.149   2.279   0.665
  185DMSO     H 1849   2.192   2.452   0.654
  185DMSO     H 1850   2.314   2.335   0.709
  186DMSO     C 1851   2.456   0.800   3.179
  186DMSO     S 1852   2.455   0.643   3.270
  186DMSO     C 1853   2.608   0.579   3.199
  186DMSO     O 1854   2.330   0.552   3.209
  186DMSO     H 1855   2.366   0.855   3.204
  186DMSO     H 1856   2.544   0.858   3.208
  186DMSO     H 1857   2.459   0.780   3.071
  186DMSO     H 1858   2.601   0.575   3.089
  186DMSO     H 1859   2.692   0.643   3.227
  186DMSO     H 1860   2.626   0.478   3.238
  187DMSO     C 1861   0.271   1.124   3.720
  187DMSO     S 1862   0.336   1.245   3.839
  187DMSO     C 1863   0.191   1.245   3.947
  187DMSO     O 1864   0.340   1.392   3.761
  187DMSO     H 1865   0.343   1.111   3.640
  187DMSO     H 1866   0.255   1.028   3.770
  187DMSO     H 1867   0.175   1.160   3.679
  187DMSO     H 1868   0.101   1.272   3.890
  187DMSO     H 1869   0.178   1.146   3.991
  187DMSO     H 1870   0.207   1.318   4.027
  188DMSO     C 1871   0.896   0.697   2.950
  188DMSO     S 1872   0.753   0.677   2.840
  188DMSO     C 1873   0.822   0.769   2.702
  188DMSO     O 1874   0.630   0.767   2.904
  188DMSO     H 1875   0.874   0.650   3.045
  188DMSO     H 1876   0.984   0.648   2.905
  188DMSO     H 1877   0.917   0.804   2.964
  188DMSO     H 1878   0.849   0.871   2.734
  188DMSO     H 1879   0.911   0.719   2.664
  188DMSO     H 1880   0.748   0.775   2.622
  189DMSO     C 1881   3.793   0.666   2.618
  189DMSO     S 1882   3.731   0.735   2.774
  189DMSO     C 1883   3.840   0.637   2.881
  189DMSO     O 1884   3.577   0.678   2.795
  189DMSO     H 1885   3.736   0.710   2.536
  189DMSO     H 1886   3.899   0.692   2.606
  189DMSO     H 1887   3.781   0.557   2.618
  189DMSO     H 1888   3.825   0.530   2.862
  189DMSO     H 1889   3.944   0.664   2.862
  189DMSO     H 1890   3.816   0.660   2.985
  190DMSO     C 1891   3.258   1.013   3.197
  190DMSO     S 1892   3.138   1.001   3.062
  190DMSO     C 1893   3.260   0.998   2.929
  190DMSO     O 1894   3.059   1.146   3.054
  190DMSO     H 1895   3.204   1.021   3.291
  190DMSO     H 1896   3.320   0.923   3.199
  190DMSO     H 1897   3.321   1.102   3.183
  190DMSO     H 1898   3.323   1.088   2.934
  190DMSO     H 1899   3.322   0.909   2.938
  190DMSO     H 1900   3.208   0.996   2.833
  191DMSO     C 1901   3.290   0.410   1.677
  191DMSO     S 1902   3.397   0.538   1.747
  191DMSO     C 1903   3.462   0.436   1.881
  191DMSO     O 1904   3.298   0.652   1.815
  191DMSO     H 1905   3.235   0.452   1.593
  191DMSO     H 1906   3.352   0.326   1.641
  191DMSO     H 1907   3.220   0.373   1.753
  191DMSO     H 1908   3.380   0.398   1.943
  191DMSO     H 1909   3.519   0.353   1.840
  191DMSO     H 1910   3.529   0.497   1.943
  192DMSO     C 1911   1.032   1.844   0.570
  192DMSO     S 1912   1.006   1.990   0.675
  192DMSO     C 1913   1.160   2.072   0.631
  192DMSO     O 1914   1.019   1.939   0.833
  192DMSO     H 1915   0.950   1.775   0.585
  192DMSO     H 1916   1.036   1.874   0.465
  192DMSO     H 1917   1.127   1.795   0.598
  192DMSO     H 1918   1.246   2.008   0.653
  192DMSO     H 1919   1.160   2.097   0.525
  192DMSO     H 1920   1.168   2.165   0.688
  193DMSO     C 1921   0.500   2.183   0.396
  193DMSO     S 1922   0.328   2.199   0.341
  193DMSO     C 1923   0.348   2.359   0.260
  193DMSO     O 1924   0.236   2.223   0.478
  193DMSO     H 1925   0.511   2.092   0.453
  193DMSO     H 1926   0.566   2.178   0.308
  193DMSO     H 1927   0.528   2.270   0.457
  193DMSO     H 1928   0.387   2.433   0.332
  193DMSO     H 1929   0.418   2.349   0.177
  193DMSO     H 1930   0.251   2.392   0.222
  194DMSO     C 1931   2.085   3.427   2.260
  194DMSO     S 1932   2.263   3.440   2.230
  194DMSO     C 1933   2.257   3.390   2.057
  194DMSO     O 1934   2.336   3.318   2.315
  194DMSO     H 1935   2.065   3.450   2.364
  194DMSO     H 1936   2.032   3.499   2.196
  194DMSO     H 1937   2.051   3.325   2.236
  194DMSO     H 1938   2.211   3.291   2.048
  194DMSO     H 1939   2.200   3.462   1.999
  194DMSO     H 1940   2.359   3.386   2.018
  195DMSO     C 1941   0.321   0.982   3.367
  195DMSO     S 1942   0.424   0.865   3.460
  195DMSO     C 1943   0.309   0.844   3.597
  195DMSO     O 1944   0.554   0.951   3.516
  195DMSO     H 1945   0.374   1.013   3.278
  195DMSO     H 1946   0.227   0.933   3.337
  195DMSO     H 1947   0.298   1.069   3.430
  195DMSO     H 1948   0.287   0.941   3.644
  195DMSO     H 1949   0.217   0.799   3.562
  195DMSO     H 1950   0.355   0.778   3.672
  196DMSO     C 1951   3.355   2.346  -0.051
  196DMSO     S 1952   3.282   2.423   0.095
  196DMSO     C 1953   3.313   2.285   0.207
  196DMSO     O 1954   3.118   2.431   0.070
  196DMSO     H 1955   3.343   2.412  -0.136
  196DMSO     H 1956   3.462   2.328  -0.034
  196DMSO     H 1957   3.305   2.250  -0.072
  196DMSO     H 1958   3.266   2.194   0.168
  196DMSO     H 1959   3.421   2.269   0.217
  196DMSO     H 1960   3.271   2.309   0.305
  197DMSO     C 1961   1.598   2.570   3.321
  197DMSO     S 1962   1.701   2.709   3.377
  197DMSO     C 1963   1.845   2.610   3.419
  197DMSO     O 1964   1.635   2.763   3.520
  197DMSO     H 1965   1.500   2.607   3.294
  197DMSO     H 1966   1.645   2.524   3.234
  197DMSO     H 1967   1.589   2.496   3.402
  197DMSO     H 1968   1.819   2.532   3.492
  197DMSO     H 1969   1.885   2.562   3.329
  197DMSO     H 1970   1.922   2.675   3.461
  198DMSO     C 1971   0.986   3.838   2.920
  198DMSO     S 1972   0.995   3.712   3.051
  198DMSO     C 1973   1.146   3.634   2.991
  198DMSO     O 1974   0.870   3.607   3.025
  198DMSO     H 1975   0.896   3.897   2.934
  198DMSO     H 1976   1.074   3.904   2.926
  198DMSO     H 1977   0.984   3.789   2.822
  198DMSO     H 1978   1.133   3.600   2.887
  198DMSO     H 1979   1.229   3.705   2.995
  198DMSO     H 1980   1.170   3.548   3.054
  199DMSO     C 1981   0.747   3.048   1.960
  199DMSO     S 1982   0.768   2.891   1.871
  199DMSO     C 1983   0.750   2.961   1.706
  199DMSO     O 1984   0.632   2.800   1.901
  199DMSO     H 1985   0.750   3.028   2.067
  199DMSO     H 1986   0.829   3.115   1.934
  199DMSO     H 1987   0.651   3.093   1.933
  199DMSO     H 1988   0.654   3.013   1.697
  199DMSO     H 1989   0.831   3.031   1.687
  199DMSO     H 1990   0.755   2.880   1.632
  200DMSO     C 1991   1.903   1.577   0.690
  200DMSO     S 1992   2.069   1.649   0.705
  200DMSO     C 1993   2.102   1.587   0.871
  200DMSO     O 1994   2.049   1.814   0.717
  200DMSO     H 1995   1.860   1.606   0.595
  200DMSO     H 1996   1.911   1.468   0.694
  200DMSO     H 1997   1.840   1.612   0.773
  200DMSO     H 1998   2.024   1.621   0.941
  200DMSO     H 1999   2.104   1.478   0.869
  200DMSO     H 2000   2.199   1.624   0.904
  201DMSO     C 2001   0.345   1.755   2.732
  201DMSO     S 2002   0.443   1.903   2.771
  201DMSO     C 2003   0.416   1.897   2.949
  201DMSO     O 2004   0.359   2.034   2.712
  201DMSO     H 2005   0.343   1.741   2.624
  201DMSO     H 2006   0.391   1.668   2.779
  201DMSO     H 2007   0.242   1.768   2.770
  201DMSO     H 2008   0.309   1.899   2.971
  201DMSO     H 2009   0.460   1.806   2.990
  201DMSO     H 2010   0.465   1.983   2.995
  202DMSO     C 2011   0.927   3.807   3.335
  202DMSO     S 2012   1.055   3.685   3.294
  202DMSO     C 2013   0.963   3.541   3.350
  202DMSO     O 2014   1.181   3.709   3.400
  202DMSO     H 2015   0.964   3.906   3.313
  202DMSO     H 2016   0.838   3.787   3.275
  202DMSO     H 2017   0.902   3.799   3.442
  202DMSO     H 2018   0.935   3.553   3.456
  202DMSO     H 2019   0.873   3.529   3.290
  202DMSO     H 2020   1.026   3.452   3.339
  203DMSO     C 2021   0.898   1.808   2.146
  203DMSO     S 2022   1.033   1.916   2.201
  203DMSO     C 2023   1.077   1.976   2.037
  203DMSO     O 2024   1.156   1.817   2.253
  203DMSO     H 2025   0.858   1.755   2.232
  203DMSO     H 2026   0.819   1.868   2.100
  203DMSO     H 2027   0.936   1.736   2.072
  203DMSO     H 2028   1.102   1.892   1.971
  203DMSO     H 2029   0.994   2.032   1.995
  203DMSO     H 2030   1.164   2.043   2.046
  204DMSO     C 2031   0.933   0.180   2.451
  204DMSO     S 2032   0.831   0.033   2.485
  204DMSO     C 2033   0.724   0.114   2.606
  204DMSO     O 2034   0.927  -0.074   2.568
  204DMSO     H 2035   1.011   0.152   2.380
  204DMSO     H 2036   0.871   0.258   2.406
  204DMSO     H 2037   0.978   0.217   2.544
  204DMSO     H 2038   0.783   0.156   2.688
  204DMSO     H 2039   0.667   0.194   2.558
  204DMSO     H 2040   0.654   0.040   2.646
  205DMSO     C 2041   3.569   0.299   2.834
  205DMSO     S 2042   3.676   0.369   2.706
  205DMSO     C 2043   3.589   0.297   2.566
  205DMSO     O 2044   3.823   0.292   2.718
  205DMSO     H 2045   3.607   0.327   2.931
  205DMSO     H 2046   3.467   0.339   2.822
  205DMSO     H 2047   3.566   0.189   2.824
  205DMSO     H 2048   3.585   0.188   2.575
  205DMSO     H 2049   3.487   0.337   2.561
  205DMSO     H 2050   3.641   0.324   2.474
  206DMSO     C 2051   0.249   1.890   1.994
  206DMSO     S 2052   0.358   1.954   2.125
  206DMSO     C 2053   0.247   1.914   2.262
  206DMSO     O 2054   0.360   2.119   2.109
  206DMSO     H 2055   0.295   1.908   1.898
  206DMSO     H 2056   0.235   1.782   2.008
  206DMSO     H 2057   0.151   1.940   1.999
  206DMSO     H 2058   0.150   1.963   2.247
  206DMSO     H 2059   0.234   1.806   2.268
  206DMSO     H 2060   0.292   1.950   2.355
  207DMSO     C 2061   3.103   1.321   0.289
  207DMSO     S 2062   2.943   1.244   0.330
  207DMSO     C 2063   3.011   1.119   0.441
  207DMSO     O 2064   2.891   1.166   0.193
  207DMSO     H 2065   3.086   1.400   0.216
  207DMSO     H 2066   3.147   1.364   0.379
  207DMSO     H 2067   3.171   1.245   0.247
  207DMSO     H 2068   3.086   1.058   0.388
  207DMSO     H 2069   3.058   1.167   0.527
  207DMSO     H 2070   2.930   1.054   0.476
  208DMSO     C 2071   1.308   2.525   1.590
  208DMSO     S 2072   1.186   2.543   1.723
  208DMSO     C 2073   1.302   2.515   1.858
  208DMSO     O 2074   1.086   2.411   1.715
  208DMSO     H 2075   1.258   2.534   1.494
  208DMSO     H 2076   1.383   2.604   1.599
  208DMSO     H 2077   1.357   2.427   1.597
  208DMSO     H 2078   1.352   2.418   1.847
  208DMSO     H 2079   1.377   2.594   1.860
  208DMSO     H 2080   1.247   2.517   1.953
  209DMSO     C 2081   3.311   0.194   2.430
  209DMSO     S 2082   3.431   0.301   2.347
  209DMSO     C 2083   3.343   0.455   2.377
  209DMSO     O 2084   3.421   0.268   2.185
  209DMSO     H 2085   3.343   0.090   2.421
  209DMSO     H 2086   3.306   0.220   2.537
  209DMSO     H 2087   3.211   0.207   2.385
  209DMSO     H 2088   3.241   0.450   2.335
  209DMSO     H 2089   3.337   0.474   2.484
  209DMSO     H 2090   3.397   0.537   2.330
  210DMSO     C 2091   3.536   1.589   2.105
  210DMSO     S 2092   3.561   1.447   1.994
  210DMSO     C 2093   3.430   1.490   1.879
  210DMSO     O 2094   3.513   1.312   2.078
  210DMSO     H 2095   3.605   1.581   2.188
  210DMSO     H 2096   3.556   1.682   2.050
  210DMSO     H 2097   3.433   1.589   2.142
  210DMSO     H 2098   3.333   1.498   1.932
  210DMSO     H 2099   3.452   1.585   1.831
  210DMSO     H 2100   3.423   1.412   1.803
  211DMSO     C 2101   1.650   0.239   2.726
  211DMSO     S 2102   1.746   0.172   2.587
  211DMSO     C 2103   1.859   0.074   2.688
  211DMSO     O 2104   1.833   0.298   2.524
  211DMSO     H 2105   1.575   0.307   2.687
  211DMSO     H 2106   1.599   0.157   2.778
  211DMSO     H 2107   1.716   0.291   2.795
  211DMSO     H 2108   1.911   0.138   2.761
  211DMSO     H 2109   1.803  -0.003   2.741
  211DMSO     H 2110   1.933   0.026   2.623
  212DMSO     C 2111   2.805   0.545   1.985
  212DMSO     S 2112   2.672   0.668   1.974
  212DMSO     C 2113   2.677   0.716   2.148
  212DMSO     O 2114   2.531   0.585   1.949
  212DMSO     H 2115   2.817   0.497   1.888
  212DMSO     H 2116   2.898   0.594   2.013
  212DMSO     H 2117   2.779   0.470   2.061
  212DMSO     H 2118   2.661   0.629   2.212
  212DMSO     H 2119   2.774   0.761   2.171
  212DMSO     H 2120   2.598   0.790   2.166
  213DMSO     C 2121   3.168   3.477   2.233
  213DMSO     S 2122   3.087   3.478   2.070
  213DMSO     C 2123   3.138   3.646   2.026
  213DMSO     O 2124   2.924   3.481   2.098
  213DMSO     H 2125   3.146   3.383   2.282
  213DMSO     H 2126   3.276   3.487   2.220
  213DMSO     H 2127   3.131   3.561   2.294
  213DMSO     H 2128   3.103   3.717   2.101
  213DMSO     H 2129   3.246   3.651   2.018
  213DMSO     H 2130   3.094   3.671   1.929
  214DMSO     C 2131   2.751   1.230   2.508
  214DMSO     S 2132   2.726   1.196   2.685
  214DMSO     C 2133   2.894   1.139   2.716
  214DMSO     O 2134   2.626   1.064   2.695
  214DMSO     H 2135   2.657   1.263   2.465
  214DMSO     H 2136   2.826   1.309   2.496
  214DMSO     H 2137   2.786   1.139   2.457
  214DMSO     H 2138   2.919   1.055   2.651
  214DMSO     H 2139   2.965   1.220   2.699
  214DMSO     H 2140   2.902   1.108   2.821
  215DMSO     C 2141   3.365   0.003   0.443
  215DMSO     S 2142   3.303  -0.053   0.282
  215DMSO     C 2143   3.342   0.100   0.194
  215DMSO     O 2144   3.138  -0.063   0.294
  215DMSO     H 2145   3.347  -0.075   0.516
  215DMSO     H 2146   3.473   0.022   0.436
  215DMSO     H 2147   3.313   0.095   0.473
  215DMSO     H 2148   3.292   0.185   0.242
  215DMSO     H 2149   3.449   0.116   0.194
  215DMSO     H 2150   3.307   0.091   0.090
  216DMSO     C 2151   1.237   0.264   2.295
  216DMSO     S 2152   1.339   0.264   2.145
  216DMSO     C 2153   1.422   0.420   2.179
  216DMSO     O 2154   1.237   0.288   2.016
  216DMSO     H 2155   1.172   0.176   2.293
  216DMSO     H 2156   1.301   0.259   2.383
  216DMSO     H 2157   1.176   0.355   2.298
  216DMSO     H 2158   1.348   0.501   2.191
  216DMSO     H 2159   1.481   0.412   2.270
  216DMSO     H 2160   1.488   0.444   2.095
  217DMSO     C 2161   0.430   2.284   2.401
  217DMSO     S 2162   0.484   2.447   2.460
  217DMSO     C 2163   0.369   2.542   2.359
  217DMSO     O 2164   0.636   2.472   2.400
  217DMSO     H 2165   0.492   2.208   2.448
  217DMSO     H 2166   0.325   2.268   2.429
  217DMSO     H 2167   0.440   2.278   2.292
  217DMSO     H 2168   0.383   2.518   2.252
  217DMSO     H 2169   0.266   2.519   2.387
  217DMSO     H 2170   0.387   2.649   2.375
  218DMSO     C 2171   1.190   3.198   2.417
  218DMSO     S 2172   1.311   3.164   2.285
  218DMSO     C 2173   1.194   3.180   2.149
  218DMSO     O 2174   1.351   3.003   2.298
  218DMSO     H 2175   1.239   3.189   2.513
  218DMSO     H 2176   1.152   3.300   2.405
  218DMSO     H 2177   1.107   3.127   2.410
  218DMSO     H 2178   1.110   3.110   2.161
  218DMSO     H 2179   1.156   3.282   2.144
  218DMSO     H 2180   1.246   3.158   2.055
  219DMSO     C 2181   1.850   2.347   1.149
  219DMSO     S 2182   1.855   2.191   1.242
  219DMSO     C 2183   1.942   2.258   1.386
  219DMSO     O 2184   1.961   2.091   1.162
  219DMSO     H 2185   1.804   2.329   1.053
  219DMSO     H 2186   1.790   2.420   1.205
  219DMSO     H 2187   1.952   2.386   1.136
  219DMSO     H 2188   2.037   2.303   1.355
  219DMSO     H 2189   1.880   2.333   1.434
  219DMSO     H 2190   1.961   2.177   1.456
  220DMSO     C 2191   1.282   2.987   1.027
  220DMSO     S 2192   1.328   2.873   0.892
  220DMSO     C 2193   1.201   2.929   0.777
  220DMSO     O 2194   1.287   2.720   0.942
  220DMSO     H 2195   1.346   2.967   1.113
  220DMSO     H 2196   1.297   3.090   0.994
  220DMSO     H 2197   1.177   2.971   1.054
  220DMSO     H 2198   1.101   2.919   0.822
  220DMSO     H 2199   1.218   3.034   0.751
  220DMSO     H 2200   1.207   2.869   0.686
  221DMSO     C 2201   2.764   0.162   0.639
  221DMSO     S 2202   2.668   0.303   0.579
  221DMSO     C 2203   2.675   0.256   0.404
  221DMSO     O 2204   2.762   0.438   0.598
  221DMSO     H 2205   2.777   0.172   0.747
  221DMSO     H 2206   2.711   0.069   0.618
  221DMSO     H 2207   2.863   0.160   0.590
  221DMSO     H 2208   2.779   0.248   0.372
  221DMSO     H 2209   2.624   0.161   0.389
  221DMSO     H 2210   2.624   0.333   0.345
  222DMSO     C 2211   2.021   2.830   1.411
  222DMSO     S 2212   2.061   2.923   1.260
  222DMSO     C 2213   2.240   2.911   1.277
  222DMSO     O 2214   2.019   3.081   1.289
  222DMSO     H 2215   1.913   2.828   1.423
  222DMSO     H 2216   2.057   2.727   1.400
  222DMSO     H 2217   2.068   2.878   1.497
  222DMSO     H 2218   2.272   2.953   1.374
  222DMSO     H 2219   2.270   2.806   1.271
  222DMSO     H 2220   2.287   2.967   1.196
  223DMSO     C 2221   3.175   3.348   0.343
  223DMSO     S 2222   3.049   3.234   0.407
  223DMSO     C 2223   2.918   3.358   0.422
  223DMSO     O 2224   3.095   3.191   0.560
  223DMSO     H 2225   3.268   3.294   0.330
  223DMSO     H 2226   3.143   3.388   0.246
  223DMSO     H 2227   3.190   3.431   0.414
  223DMSO     H 2228   2.951   3.440   0.487
  223DMSO     H 2229   2.893   3.397   0.324
  223DMSO     H 2230   2.830   3.311   0.465
  224DMSO     C 2231   0.064   3.240   2.024
  224DMSO     S 2232   0.131   3.374   2.126
  224DMSO     C 2233   0.074   3.307   2.284
  224DMSO     O 2234   0.040   3.509   2.094
  224DMSO     H 2235   0.084   3.262   1.920
  224DMSO     H 2236   0.114   3.146   2.050
  224DMSO     H 2237  -0.044   3.230   2.041
  224DMSO     H 2238  -0.035   3.293   2.282
  224DMSO     H 2239   0.122   3.212   2.304
  224DMSO     H 2240   0.100   3.377   2.364
  225DMSO     C 2241   0.330   3.695   2.088
  225DMSO     S 2242   0.435   3.641   1.950
  225DMSO     C 2243   0.312   3.670   1.822
  225DMSO     O 2244   0.454   3.477   1.966
  225DMSO     H 2245   0.384   3.682   2.181
  225DMSO     H 2246   0.305   3.801   2.076
  225DMSO     H 2247   0.237   3.636   2.090
  225DMSO     H 2248   0.220   3.613   1.843
  225DMSO     H 2249   0.288   3.776   1.816
  225DMSO     H 2250   0.353   3.638   1.725
  226DMSO     C 2251   3.485   3.481   3.142
  226DMSO     S 2252   3.394   3.529   3.292
  226DMSO     C 2253   3.384   3.363   3.361
  226DMSO     O 2254   3.241   3.572   3.243
  226DMSO     H 2255   3.500   3.569   3.080
  226DMSO     H 2256   3.583   3.441   3.170
  226DMSO     H 2257   3.429   3.405   3.087
  226DMSO     H 2258   3.335   3.295   3.290
  226DMSO     H 2259   3.484   3.326   3.383
  226DMSO     H 2260   3.326   3.367   3.454
  227DMSO     C 2261   3.866   1.782   0.337
  227DMSO     S 2262   3.810   1.953   0.356
  227DMSO     C 2263   3.637   1.913   0.387
  227DMSO     O 2264   3.819   2.025   0.207
  227DMSO     H 2265   3.972   1.782   0.312
  227DMSO     H 2266   3.851   1.727   0.431
  227DMSO     H 2267   3.809   1.733   0.256
  227DMSO     H 2268   3.596   1.854   0.303
  227DMSO     H 2269   3.628   1.855   0.479
  227DMSO     H 2270   3.580   2.006   0.397
  228DMSO     C 2271   1.304   1.563   2.804
  228DMSO     S 2272   1.337   1.466   2.954
  228DMSO     C 2273   1.513   1.441   2.922
  228DMSO     O 2274   1.261   1.320   2.935
  228DMSO     H 2275   1.199   1.587   2.800
  228DMSO     H 2276   1.362   1.656   2.807
  228DMSO     H 2277   1.333   1.505   2.715
  228DMSO     H 2278   1.527   1.392   2.825
  228DMSO     H 2279   1.565   1.537   2.922
  228DMSO     H 2280   1.555   1.378   3.001
  229DMSO     C 2281   2.355   3.036   3.594
  229DMSO     S 2282   2.277   3.149   3.475
  229DMSO     C 2283   2.154   3.032   3.416
  229DMSO     O 2284   2.386   3.173   3.353
  229DMSO     H 2285   2.439   3.087   3.641
  229DMSO     H 2286   2.282   3.009   3.671
  229DMSO     H 2287   2.389   2.946   3.542
  229DMSO     H 2288   2.203   2.942   3.377
  229DMSO     H 2289   2.086   3.004   3.497
  229DMSO     H 2290   2.095   3.079   3.336
  230DMSO     C 2291   1.235   0.143   0.151
  230DMSO     S 2292   1.302   0.122  -0.016
  230DMSO     C 2293   1.232  -0.041  -0.044
  230DMSO     O 2294   1.466   0.104  -0.000
  230DMSO     H 2295   1.270   0.238   0.192
  230DMSO     H 2296   1.126   0.144   0.147
  230DMSO     H 2297   1.269   0.061   0.215
  230DMSO     H 2298   1.265  -0.111   0.034
  230DMSO     H 2299   1.123  -0.036  -0.043
  230DMSO     H 2300   1.264  -0.078  -0.142
  231DMSO     C 2301   0.741   0.438   0.272
  231DMSO     S 2302   0.721   0.318   0.137
  231DMSO     C 2303   0.791   0.423   0.008
  231DMSO     O 2304   0.558   0.304   0.107
  231DMSO     H 2305   0.699   0.395   0.363
  231DMSO     H 2306   0.847   0.458   0.287
  231DMSO     H 2307   0.689   0.531   0.246
  231DMSO     H 2308   0.736   0.517   0.002
  231DMSO     H 2309   0.896   0.443   0.031
  231DMSO     H 2310   0.786   0.370  -0.087
  232DMSO     C 2311   3.297   0.597  -0.002
  232DMSO     S 2312   3.163   0.566   0.116
  232DMSO     C 2313   3.232   0.414   0.183
  232DMSO     O 2314   3.029   0.524   0.026
  232DMSO     H 2315   3.274   0.686  -0.060
  232DMSO     H 2316   3.391   0.614   0.053
  232DMSO     H 2317   3.309   0.511  -0.069
  232DMSO     H 2318   3.249   0.340   0.103
  232DMSO     H 2319   3.327   0.435   0.233
  232DMSO     H 2320   3.162   0.373   0.257
  233DMSO     C 2321   3.335   1.838   1.408
  233DMSO     S 2322   3.168   1.770   1.392
  233DMSO     C 2323   3.113   1.884   1.263
  233DMSO     O 2324   3.086   1.810   1.531
  233DMSO     H 2325   3.387   1.785   1.487
  233DMSO     H 2326   3.389   1.824   1.314
  233DMSO     H 2327   3.330   1.945   1.431
  233DMSO     H 2328   3.124   1.988   1.297
  233DMSO     H 2329   3.173   1.869   1.173
  233DMSO     H 2330   3.009   1.863   1.240
  234DMSO     C 2331   1.930   0.346   1.029
  234DMSO     S 2332   1.815   0.461   1.109
  234DMSO     C 2333   1.850   0.408   1.277
  234DMSO     O 2334   1.662   0.411   1.071
  234DMSO     H 2335   1.923   0.357   0.921
  234DMSO     H 2336   2.032   0.368   1.060
  234DMSO     H 2337   1.905   0.243   1.057
  234DMSO     H 2338   1.830   0.301   1.288
  234DMSO     H 2339   1.954   0.429   1.302
  234DMSO     H 2340   1.786   0.464   1.346
  235DMSO     C 2341   1.176   3.379   1.061
  235DMSO     S 2342   1.210   3.259   0.929
  235DMSO     C 2343   1.138   3.358   0.796
  235DMSO     O 2344   1.110   3.129   0.954
  235DMSO     H 2345   1.209   3.337   1.156
  235DMSO     H 2346   1.232   3.471   1.042
  235DMSO     H 2347   1.068   3.401   1.065
  235DMSO     H 2348   1.033   3.382   0.819
  235DMSO     H 2349   1.194   3.450   0.784
  235DMSO     H 2350   1.143   3.301   0.703
  236DMSO     C 2351   2.586   0.043   1.341
  236DMSO     S 2352   2.667   0.138   1.209
  236DMSO     C 2353   2.612   0.032   1.074
  236DMSO     O 2354   2.831   0.116   1.227
  236DMSO     H 2355   2.611   0.089   1.437
  236DMSO     H 2356   2.478   0.046   1.327
  236DMSO     H 2357   2.621  -0.061   1.339
  236DMSO     H 2358   2.645  -0.072   1.091
  236DMSO     H 2359   2.504   0.034   1.066
  236DMSO     H 2360   2.655   0.068   0.980
  237DMSO     C 2361   2.148   0.371   2.353
  237DMSO     S 2362   2.225   0.525   2.294
  237DMSO     C 2363   2.298   0.453   2.147
  237DMSO     O 2364   2.348   0.561   2.399
  237DMSO     H 2365   2.099   0.391   2.448
  237DMSO     H 2366   2.073   0.338   2.281
  237DMSO     H 2367   2.225   0.294   2.366
  237DMSO     H 2368   2.365   0.370   2.173
  237DMSO     H 2369   2.220   0.417   2.080
  237DMSO     H 2370   2.356   0.530   2.095
  238DMSO     C 2371   3.715   2.687   1.341
  238DMSO     S 2372   3.760   2.608   1.184
  238DMSO     C 2373   3.675   2.727   1.079
  238DMSO     O 2374   3.676   2.465   1.176
  238DMSO     H 2375   3.754   2.627   1.423
  238DMSO     H 2376   3.760   2.787   1.346
  238DMSO     H 2377   3.606   2.695   1.349
  238DMSO     H 2378   3.569   2.733   1.105
  238DMSO     H 2379   3.721   2.826   1.090
  238DMSO     H 2380   3.685   2.696   0.975
  239DMSO     C 2381   2.824   2.307   1.864
  239DMSO     S 2382   2.982   2.335   1.949
  239DMSO     C 2383   2.918   2.312   2.116
  239DMSO     O 2384   3.018   2.496   1.932
  239DMSO     H 2385   2.838   2.321   1.758
  239DMSO     H 2386   2.790   2.205   1.883
  239DMSO     H 2387   2.749   2.378   1.902
  239DMSO     H 2388   2.836   2.382   2.136
  239DMSO     H 2389   2.882   2.209   2.128
  239DMSO     H 2390   2.999   2.329   2.188
  240DMSO     C 2391   1.674   1.351   3.269
  240DMSO     S 2392   1.732   1.181   3.291
  240DMSO     C 2393   1.809   1.166   3.129
  240DMSO     O 2394   1.598   1.083   3.292
  240DMSO     H 2395   1.618   1.381   3.358
  240DMSO     H 2396   1.760   1.418   3.257
  240DMSO     H 2397   1.610   1.357   3.180
  240DMSO     H 2398   1.735   1.186   3.050
  240DMSO     H 2399   1.891   1.237   3.120
  240DMSO     H 2400   1.849   1.065   3.117
  241DMSO     C 2401   1.438   3.624   2.507
  241DMSO     S 2402   1.351   3.468   2.473
  241DMSO     C 2403   1.411   3.451   2.303
  241DMSO     O 2404   1.189   3.503   2.466
  241DMSO     H 2405   1.412   3.657   2.607
  241DMSO     H 2406   1.546   3.608   2.501
  241DMSO     H 2407   1.408   3.700   2.434
  241DMSO     H 2408   1.383   3.540   2.244
  241DMSO     H 2409   1.519   3.440   2.303
  241DMSO     H 2410   1.366   3.362   2.259
  242DMSO     C 2411   2.100   0.042   1.310
  242DMSO     S 2412   2.142   0.099   1.477
  242DMSO     C 2413   2.149  -0.065   1.552
  242DMSO     O 2414   2.008   0.176   1.538
  242DMSO     H 2415   2.086   0.129   1.246
  242DMSO     H 2416   2.182  -0.019   1.271
  242DMSO     H 2417   2.008  -0.017   1.314
  242DMSO     H 2418   2.054  -0.117   1.538
  242DMSO     H 2419   2.229  -0.123   1.506
  242DMSO     H 2420   2.170  -0.054   1.659
  243DMSO     C 2421   3.352   1.774   2.810
  243DMSO     S 2422   3.300   1.695   2.655
  243DMSO     C 2423   3.426   1.566   2.656
  243DMSO     O 2424   3.338   1.800   2.532
  243DMSO     H 2425   3.290   1.861   2.828
  243DMSO     H 2426   3.340   1.703   2.892
  243DMSO     H 2427   3.458   1.804   2.802
  243DMSO     H 2428   3.527   1.611   2.660
  243DMSO     H 2429   3.412   1.501   2.742
  243DMSO     H 2430   3.417   1.506   2.565
  244DMSO     C 2431   1.653   3.171   2.268
  244DMSO     S 2432   1.654   2.994   2.308
  244DMSO     C 2433   1.594   3.012   2.476
  244DMSO     O 2434   1.814   2.949   2.317
  244DMSO     H 2435   1.691   3.185   2.168
  244DMSO     H 2436   1.550   3.209   2.272
  244DMSO     H 2437   1.715   3.226   2.340
  244DMSO     H 2438   1.660   3.079   2.534
  244DMSO     H 2439   1.493   3.054   2.475
  244DMSO     H 2440   1.591   2.914   2.524
  245DMSO     C 2441   0.501   1.701   0.533
  245DMSO     S 2442   0.328   1.702   0.478
  245DMSO     C 2443   0.257   1.657   0.637
  245DMSO     O 2444   0.310   1.571   0.377
  245DMSO     H 2445   0.565   1.722   0.449
  245DMSO     H 2446   0.515   1.779   0.609
  245DMSO     H 2447   0.526   1.603   0.576
  245DMSO     H 2448   0.299   1.562   0.673
  245DMSO     H 2449   0.277   1.736   0.710
  245DMSO     H 2450   0.149   1.647   0.626
  246DMSO     C 2451   0.658   0.902   3.249
  246DMSO     S 2452   0.785   0.946   3.127
  246DMSO     C 2453   0.850   1.088   3.218
  246DMSO     O 2454   0.706   1.005   2.994
  246DMSO     H 2455   0.601   0.818   3.212
  246DMSO     H 2456   0.706   0.874   3.343
  246DMSO     H 2457   0.592   0.988   3.266
  246DMSO     H 2458   0.770   1.160   3.238
  246DMSO     H 2459   0.893   1.054   3.313
  246DMSO     H 2460   0.929   1.135   3.159
  247DMSO     C 2461   1.986   2.806   3.115
  247DMSO     S 2462   2.042   2.836   2.945
  247DMSO     C 2463   1.892   2.776   2.865
  247DMSO     O 2464   2.162   2.726   2.914
  247DMSO     H 2465   2.066   2.832   3.184
  247DMSO     H 2466   1.899   2.868   3.137
  247DMSO     H 2467   1.959   2.700   3.127
  247DMSO     H 2468   1.871   2.672   2.895
  247DMSO     H 2469   1.807   2.839   2.893
  247DMSO     H 2470   1.905   2.781   2.757
  248DMSO     C 2471   3.452   3.455   0.266
  248DMSO     S 2472   3.563   3.592   0.307
  248DMSO     C 2473   3.682   3.560   0.176
  248DMSO     O 2474   3.636   3.554   0.452
  248DMSO     H 2475   3.371   3.452   0.338
  248DMSO     H 2476   3.410   3.471   0.166
  248DMSO     H 2477   3.507   3.360   0.268
  248DMSO     H 2478   3.721   3.457   0.184
  248DMSO     H 2479   3.635   3.572   0.079
  248DMSO     H 2480   3.765   3.631   0.185
  249DMSO     C 2481   2.938  -0.052   2.988
  249DMSO     S 2482   3.050   0.036   2.877
  249DMSO     C 2483   3.111   0.152   3.001
  249DMSO     O 2484   2.956   0.122   2.770
  249DMSO     H 2485   2.884  -0.128   2.931
  249DMSO     H 2486   2.995  -0.101   3.067
  249DMSO     H 2487   2.866   0.018   3.033
  249DMSO     H 2488   3.028   0.208   3.045
  249DMSO     H 2489   3.164   0.098   3.079
  249DMSO     H 2490   3.181   0.222   2.953
  250DMSO     C 2491   1.947   3.803   0.619
  250DMSO     S 2492   1.904   3.632   0.662
  250DMSO     C 2493   1.798   3.603   0.519
  250DMSO     O 2494   1.806   3.640   0.796
  250DMSO     H 2495   2.010   3.844   0.697
  250DMSO     H 2496   2.003   3.804   0.524
  250DMSO     H 2497   1.856   3.863   0.608
  250DMSO     H 2498   1.717   3.678   0.515
  250DMSO     H 2499   1.857   3.610   0.427
  250DMSO     H 2500   1.755   3.503   0.526
  251DMSO     C 2501   1.332   1.170   2.080
  251DMSO     S 2502   1.387   1.037   2.191
  251DMSO     C 2503   1.506   1.137   2.282
  251DMSO     O 2504   1.472   0.929   2.098
  251DMSO     H 2505   1.259   1.130   2.010
  251DMSO     H 2506   1.285   1.250   2.139
  251DMSO     H 2507   1.418   1.210   2.025
  251DMSO     H 2508   1.580   1.180   2.213
  251DMSO     H 2509   1.455   1.217   2.335
  251DMSO     H 2510   1.558   1.073   2.355
  252DMSO     C 2511   1.661   1.909   0.978
  252DMSO     S 2512   1.650   1.908   1.160
  252DMSO     C 2513   1.775   1.781   1.185
  252DMSO     O 2514   1.502   1.843   1.198
  252DMSO     H 2515   1.588   1.979   0.939
  252DMSO     H 2516   1.761   1.941   0.948
  252DMSO     H 2517   1.642   1.808   0.939
  252DMSO     H 2518   1.747   1.689   1.131
  252DMSO     H 2519   1.872   1.816   1.150
  252DMSO     H 2520   1.782   1.760   1.292
  253DMSO     C 2521   0.633   1.143   2.368
  253DMSO     S 2522   0.501   1.020   2.346
  253DMSO     C 2523   0.398   1.078   2.482
  253DMSO     O 2524   0.565   0.873   2.391
  253DMSO     H 2525   0.712   1.124   2.297
  253DMSO     H 2526   0.592   1.243   2.351
  253DMSO     H 2527   0.673   1.137   2.471
  253DMSO     H 2528   0.455   1.077   2.576
  253DMSO     H 2529   0.364   1.180   2.462
  253DMSO     H 2530   0.311   1.013   2.491
  254DMSO     C 2531   2.628   1.617   0.605
  254DMSO     S 2532   2.551   1.597   0.769
  254DMSO     C 2533   2.706   1.581   0.860
  254DMSO     O 2534   2.477   1.449   0.770
  254DMSO     H 2535   2.550   1.624   0.530
  254DMSO     H 2536   2.688   1.708   0.604
  254DMSO     H 2537   2.692   1.530   0.584
  254DMSO     H 2538   2.765   1.497   0.820
  254DMSO     H 2539   2.764   1.673   0.852
  254DMSO     H 2540   2.683   1.563   0.965
  255DMSO     C 2541   0.771   3.463   1.162
  255DMSO     S 2542   0.761   3.450   1.343
  255DMSO     C 2543   0.603   3.363   1.345
  255DMSO     O 2544   0.735   3.603   1.401
  255DMSO     H 2545   0.861   3.519   1.136
  255DMSO     H 2546   0.777   3.363   1.118
  255DMSO     H 2547   0.683   3.515   1.123
  255DMSO     H 2548   0.526   3.422   1.293
  255DMSO     H 2549   0.613   3.266   1.297
  255DMSO     H 2550   0.573   3.347   1.449
  256DMSO     C 2551   1.127   0.985   1.161
  256DMSO     S 2552   1.042   1.073   1.026
  256DMSO     C 2553   0.878   1.068   1.101
  256DMSO     O 2554   1.040   0.970   0.896
  256DMSO     H 2555   1.231   0.972   1.134
  256DMSO     H 2556   1.121   1.045   1.253
  256DMSO     H 2557   1.079   0.888   1.177
  256DMSO     H 2558   0.848   0.965   1.122
  256DMSO     H 2559   0.879   1.125   1.194
  256DMSO     H 2560   0.806   1.114   1.032
  257DMSO     C 2561   2.104   0.545   0.444
  257DMSO     S 2562   2.247   0.605   0.349
  257DMSO     C 2563   2.221   0.780   0.385
  257DMSO     O 2564   2.211   0.581   0.189
  257DMSO     H 2565   2.096   0.438   0.433
  257DMSO     H 2566   2.118   0.569   0.550
  257DMSO     H 2567   2.012   0.594   0.407
  257DMSO     H 2568   2.121   0.811   0.353
  257DMSO     H 2569   2.232   0.797   0.492
  257DMSO     H 2570   2.297   0.838   0.332
  258DMSO     C 2571   2.206   3.289   0.942
  258DMSO     S 2572   2.129   3.359   0.793
  258DMSO     C 2573   2.259   3.305   0.680
  258DMSO     O 2574   2.139   3.524   0.806
  258DMSO     H 2575   2.144   3.315   1.028
  258DMSO     H 2576   2.212   3.181   0.933
  258DMSO     H 2577   2.307   3.331   0.955
  258DMSO     H 2578   2.356   3.345   0.711
  258DMSO     H 2579   2.264   3.196   0.677
  258DMSO     H 2580   2.235   3.341   0.579
  259DMSO     C 2581   0.599   3.331   2.262
  259DMSO     S 2582   0.698   3.462   2.339
  259DMSO     C 2583   0.609   3.465   2.495
  259DMSO     O 2584   0.662   3.603   2.258
  259DMSO     H 2585   0.633   3.315   2.161
  259DMSO     H 2586   0.611   3.238   2.320
  259DMSO     H 2587   0.493   3.360   2.262
  259DMSO     H 2588   0.502   3.484   2.478
  259DMSO     H 2589   0.621   3.369   2.546
  259DMSO     H 2590   0.651   3.543   2.559
  260DMSO     C 2591   2.344   0.175   1.977
  260DMSO     S 2592   2.481   0.249   1.884
  260DMSO     C 2593   2.418   0.206   1.721
  260DMSO     O 2594   2.615   0.155   1.913
  260DMSO     H 2595   2.363   0.186   2.083
  260DMSO     H 2596   2.251   0.227   1.952
  260DMSO     H 2597   2.334   0.069   1.951
  260DMSO     H 2598   2.403   0.098   1.713
  260DMSO     H 2599   2.324   0.257   1.703
  260DMSO     H 2600   2.491   0.239   1.645
  261DMSO     C 2601   2.037   2.036   2.753
  261DMSO     S 2602   2.110   2.184   2.828
  261DMSO     C 2603   2.018   2.173   2.983
  261DMSO     O 2604   2.051   2.315   2.744
  261DMSO     H 2605   2.076   2.024   2.652
  261DMSO     H 2606   2.064   1.948   2.812
  261DMSO     H 2607   1.928   2.046   2.750
  261DMSO     H 2608   1.910   2.173   2.963
  261DMSO     H 2609   2.046   2.082   3.036
  261DMSO     H 2610   2.044   2.259   3.045
  262DMSO     C 2611   3.068   2.671   2.441
  262DMSO     S 2612   3.205   2.618   2.335
  262DMSO     C 2613   3.219   2.773   2.243
  262DMSO     O 2614   3.145   2.503   2.231
  262DMSO     H 2615   3.039   2.588   2.505
  262DMSO     H 2616   3.100   2.755   2.503
  262DMSO     H 2617   2.983   2.702   2.378
  262DMSO     H 2618   3.123   2.797   2.195
  262DMSO     H 2619   3.247   2.854   2.310
  262DMSO     H 2620   3.296   2.762   2.167
  263DMSO     C 2621   3.168   3.226   1.276
  263DMSO     S 2622   3.122   3.340   1.410
  263DMSO     C 2623   3.139   3.220   1.543
  263DMSO     O 2624   2.960   3.372   1.391
  263DMSO     H 2625   3.161   3.278   1.181
  263DMSO     H 2626   3.272   3.193   1.291
  263DMSO     H 2627   3.102   3.139   1.276
  263DMSO     H 2628   3.074   3.133   1.524
  263DMSO     H 2629   3.242   3.187   1.551
  263DMSO     H 2630   3.110   3.267   1.637
  264DMSO     C 2631   3.264   1.956   2.009
  264DMSO     S 2632   3.171   2.037   1.876
  264DMSO     C 2633   3.203   1.910   1.752
  264DMSO     O 2634   3.257   2.172   1.832
  264DMSO     H 2635   3.262   2.020   2.097
  264DMSO     H 2636   3.217   1.860   2.034
  264DMSO     H 2637   3.367   1.939   1.977
  264DMSO     H 2638   3.311   1.896   1.738
  264DMSO     H 2639   3.157   1.816   1.783
  264DMSO     H 2640   3.158   1.941   1.657
  265DMSO     C 2641   0.198  -0.077   0.814
  265DMSO     S 2642   0.164   0.101   0.799
  265DMSO     C 2643   0.257   0.149   0.946
  265DMSO     O 2644   0.003   0.122   0.833
  265DMSO     H 2645   0.145  -0.129   0.735
  265DMSO     H 2646   0.305  -0.095   0.803
  265DMSO     H 2647   0.164  -0.113   0.912
  265DMSO     H 2648   0.220   0.097   1.034
  265DMSO     H 2649   0.363   0.126   0.932
  265DMSO     H 2650   0.247   0.257   0.960
  266DMSO     C 2651   3.743   1.435   2.604
  266DMSO     S 2652   3.775   1.524   2.449
  266DMSO     C 2653   3.943   1.573   2.491
  266DMSO     O 2654   3.681   1.661   2.453
  266DMSO     H 2655   3.641   1.398   2.603
  266DMSO     H 2656   3.812   1.350   2.612
  266DMSO     H 2657   3.758   1.502   2.690
  266DMSO     H 2658   3.945   1.631   2.585
  266DMSO     H 2659   4.006   1.485   2.501
  266DMSO     H 2660   3.983   1.635   2.410
  267DMSO     C 2661   3.445   2.008   1.160
  267DMSO     S 2662   3.360   2.100   1.029
  267DMSO     C 2663   3.216   2.145   1.128
  267DMSO     O 2664   3.310   1.989   0.916
  267DMSO     H 2665   3.536   1.965   1.120
  267DMSO     H 2666   3.469   2.076   1.242
  267DMSO     H 2667   3.379   1.928   1.197
  267DMSO     H 2668   3.167   2.055   1.167
  267DMSO     H 2669   3.247   2.209   1.210
  267DMSO     H 2670   3.146   2.200   1.065
  268DMSO     C 2671   1.083   0.684   0.866
  268DMSO     S 2672   1.135   0.623   1.029
  268DMSO     C 2673   1.207   0.469   0.969
  268DMSO     O 2674   0.997   0.584   1.112
  268DMSO     H 2675   1.031   0.778   0.879
  268DMSO     H 2676   1.171   0.700   0.803
  268DMSO     H 2677   1.017   0.611   0.818
  268DMSO     H 2678   1.132   0.411   0.913
  268DMSO     H 2679   1.292   0.491   0.903
  268DMSO     H 2680   1.243   0.411   1.054
  269DMSO     C 2681   0.840   0.505   3.341
  269DMSO     S 2682   0.961   0.434   3.457
  269DMSO     C 2683   0.902   0.524   3.602
  269DMSO     O 2684   1.109   0.498   3.416
  269DMSO     H 2685   0.860   0.466   3.242
  269DMSO     H 2686   0.739   0.475   3.371
  269DMSO     H 2687   0.847   0.614   3.342
  269DMSO     H 2688   0.904   0.632   3.584
  269DMSO     H 2689   0.799   0.494   3.625
  269DMSO     H 2690   0.966   0.500   3.687
  270DMSO     C 2691   0.338   2.531   1.799
  270DMSO     S 2692   0.505   2.571   1.741
  270DMSO     C 2693   0.475   2.529   1.568
  270DMSO     O 2694   0.607   2.457   1.804
  270DMSO     H 2695   0.333   2.545   1.907
  270DMSO     H 2696   0.265   2.597   1.751
  270DMSO     H 2697   0.314   2.426   1.775
  270DMSO     H 2698   0.441   2.424   1.560
  270DMSO     H 2699   0.399   2.595   1.526
  270DMSO     H 2700   0.568   2.541   1.512
  271DMSO     C 2701   1.695   1.939   0.299
  271DMSO     S 2702   1.791   1.902   0.449
  271DMSO     C 2703   1.651   1.911   0.562
  271DMSO     O 2704   1.888   2.033   0.478
  271DMSO     H 2705   1.762   1.943   0.214
  271DMSO     H 2706   1.621   1.860   0.282
  271DMSO     H 2707   1.644   2.035   0.311
  271DMSO     H 2708   1.603   2.010   0.556
  271DMSO     H 2709   1.579   1.833   0.539
  271DMSO     H 2710   1.688   1.896   0.664
  272DMSO     C 2711   0.559   0.946   1.286
  272DMSO     S 2712   0.537   0.894   1.459
  272DMSO     C 2713   0.662   0.763   1.454
  272DMSO     O 2714   0.389   0.820   1.469
  272DMSO     H 2715   0.487   1.024   1.264
  272DMSO     H 2716   0.660   0.984   1.272
  272DMSO     H 2717   0.542   0.860   1.219
  272DMSO     H 2718   0.638   0.691   1.375
  272DMSO     H 2719   0.760   0.806   1.436
  272DMSO     H 2720   0.663   0.712   1.551
  273DMSO     C 2721   0.897   0.530   1.670
  273DMSO     S 2722   0.769   0.533   1.799
  273DMSO     C 2723   0.884   0.536   1.939
  273DMSO     O 2724   0.696   0.384   1.798
  273DMSO     H 2725   0.849   0.524   1.573
  273DMSO     H 2726   0.955   0.623   1.675
  273DMSO     H 2727   0.963   0.444   1.685
  273DMSO     H 2728   0.951   0.449   1.935
  273DMSO     H 2729   0.942   0.628   1.936
  273DMSO     H 2730   0.826   0.533   2.032
  274DMSO     C 2731   3.665   0.208   1.130
  274DMSO     S 2732   3.701   0.104   1.274
  274DMSO     C 2733   3.561  -0.008   1.253
  274DMSO     O 2734   3.671   0.196   1.409
  274DMSO     H 2735   3.737   0.288   1.125
  274DMSO     H 2736   3.672   0.147   1.039
  274DMSO     H 2737   3.563   0.249   1.138
  274DMSO     H 2738   3.467   0.049   1.252
  274DMSO     H 2739   3.571  -0.062   1.159
  274DMSO     H 2740   3.560  -0.079   1.335
  275DMSO     C 2741   3.063   2.477   1.426
  275DMSO     S 2742   3.118   2.648   1.453
  275DMSO     C 2743   2.952   2.719   1.462
  275DMSO     O 2744   3.186   2.699   1.311
  275DMSO     H 2745   3.150   2.414   1.413
  275DMSO     H 2746   3.007   2.442   1.514
  275DMSO     H 2747   2.999   2.472   1.337
  275DMSO     H 2748   2.896   2.696   1.371
  275DMSO     H 2749   2.899   2.678   1.548
  275DMSO     H 2750   2.961   2.827   1.474
  276DMSO     C 2751   0.233   0.575   0.189
  276DMSO     S 2752   0.352   0.537   0.058
  276DMSO     C 2753   0.235   0.553  -0.078
  276DMSO     O 2754   0.390   0.376   0.072
  276DMSO     H 2755   0.283   0.566   0.285
  276DMSO     H 2756   0.196   0.677   0.177
  276DMSO     H 2757   0.148   0.505   0.184
  276DMSO     H 2758   0.150   0.485  -0.064
  276DMSO     H 2759   0.199   0.656  -0.084
  276DMSO     H 2760   0.286   0.529  -0.172
  277DMSO     C 2761   3.793   3.691   3.698
  277DMSO     S 2762   3.851   3.728   3.530
  277DMSO     C 2763   3.733   3.861   3.499
  277DMSO     O 2764   3.808   3.600   3.435
  277DMSO     H 2765   3.850   3.607   3.737
  277DMSO     H 2766   3.809   3.778   3.762
  277DMSO     H 2767   3.686   3.666   3.696
  277DMSO     H 2768   3.630   3.824   3.511
  277DMSO     H 2769   3.750   3.943   3.568
  277DMSO     H 2770   3.747   3.897   3.397
  278DMSO     C 2771   3.363   0.959   3.691
  278DMSO     S 2772   3.249   1.095   3.726
  278DMSO     C 2773   3.361   1.186   3.835
  278DMSO     O 2774   3.127   1.033   3.821
  278DMSO     H 2775   3.313   0.886   3.628
  278DMSO     H 2776   3.451   0.998   3.638
  278DMSO     H 2777   3.395   0.911   3.785
  278DMSO     H 2778   3.393   1.122   3.919
  278DMSO     H 2779   3.448   1.218   3.779
  278DMSO     H 2780   3.309   1.274   3.874
  279DMSO     C 2781   0.921   2.406   0.447
  279DMSO     S 2782   1.003   2.504   0.576
  279DMSO     C 2783   0.912   2.434   0.714
  279DMSO     O 2784   0.952   2.661   0.557
  279DMSO     H 2785   0.959   2.436   0.350
  279DMSO     H 2786   0.943   2.300   0.463
  279DMSO     H 2787   0.812   2.422   0.452
  279DMSO     H 2788   0.803   2.448   0.700
  279DMSO     H 2789   0.934   2.327   0.723
  279DMSO     H 2790   0.943   2.484   0.807
  280DMSO     C 2791   2.575   3.139   3.150
  280DMSO     S 2792   2.589   2.958   3.146
  280DMSO     C 2793   2.726   2.948   3.263
  280DMSO     O 2794   2.648   2.917   2.997
  280DMSO     H 2795   2.498   3.170   3.080
  280DMSO     H 2796   2.547   3.171   3.251
  280DMSO     H 2797   2.671   3.185   3.122
  280DMSO     H 2798   2.812   3.007   3.227
  280DMSO     H 2799   2.695   2.985   3.360
  280DMSO     H 2800   2.756   2.843   3.273
  281DMSO     C 2801   1.731   2.142   1.489
  281DMSO     S 2802   1.555   2.104   1.511
  281DMSO     C 2803   1.578   1.930   1.552
  281DMSO     O 2804   1.485   2.110   1.360
  281DMSO     H 2805   1.741   2.245   1.458
  281DMSO     H 2806   1.783   2.127   1.584
  281DMSO     H 2807   1.774   2.075   1.413
  281DMSO     H 2808   1.632   1.878   1.472
  281DMSO     H 2809   1.634   1.921   1.645
  281DMSO     H 2810   1.480   1.883   1.566
  282DMSO     C 2811   3.361   3.684   0.921
  282DMSO     S 2812   3.272   3.534   0.872
  282DMSO     C 2813   3.211   3.599   0.715
  282DMSO     O 2814   3.141   3.520   0.974
  282DMSO     H 2815   3.405   3.668   1.019
  282DMSO     H 2816   3.442   3.703   0.849
  282DMSO     H 2817   3.293   3.769   0.923
  282DMSO     H 2818   3.153   3.691   0.732
  282DMSO     H 2819   3.295   3.621   0.649
  282DMSO     H 2820   3.147   3.524   0.668
  283DMSO     C 2821   3.358   0.526   1.056
  283DMSO     S 2822   3.356   0.690   1.135
  283DMSO     C 2823   3.534   0.699   1.162
  283DMSO     O 2824   3.284   0.671   1.283
  283DMSO     H 2825   3.256   0.497   1.033
  283DMSO     H 2826   3.416   0.531   0.963
  283DMSO     H 2827   3.404   0.453   1.123
  283DMSO     H 2828   3.568   0.613   1.222
  283DMSO     H 2829   3.587   0.699   1.067
  283DMSO     H 2830   3.557   0.792   1.216
  284DMSO     C 2831   1.935   1.300   2.655
  284DMSO     S 2832   1.932   1.412   2.797
  284DMSO     C 2833   1.771   1.361   2.858
  284DMSO     O 2834   1.917   1.566   2.737
  284DMSO     H 2835   2.026   1.317   2.598
  284DMSO     H 2836   1.934   1.196   2.690
  284DMSO     H 2837   1.848   1.318   2.591
  284DMSO     H 2838   1.694   1.375   2.780
  284DMSO     H 2839   1.773   1.257   2.888
  284DMSO     H 2840   1.745   1.422   2.945
  285DMSO     C 2841   2.715   2.878   2.279
  285DMSO     S 2842   2.685   2.909   2.455
  285DMSO     C 2843   2.588   3.059   2.431
  285DMSO     O 2844   2.830   2.954   2.522
  285DMSO     H 2845   2.778   2.790   2.269
  285DMSO     H 2846   2.620   2.859   2.229
  285DMSO     H 2847   2.764   2.965   2.234
  285DMSO     H 2848   2.646   3.134   2.375
  285DMSO     H 2849   2.496   3.036   2.377
  285DMSO     H 2850   2.561   3.100   2.529
  286DMSO     C 2851   1.020   0.116   1.727
  286DMSO     S 2852   0.899   0.045   1.842
  286DMSO     C 2853   0.777   0.002   1.717
  286DMSO     O 2854   0.838   0.170   1.931
  286DMSO     H 2855   1.105   0.154   1.783
  286DMSO     H 2856   1.055   0.038   1.658
  286DMSO     H 2857   0.973   0.197   1.670
  286DMSO     H 2858   0.748   0.091   1.660
  286DMSO     H 2859   0.818  -0.072   1.649
  286DMSO     H 2860   0.689  -0.040   1.767
  287DMSO     C 2861   0.913   1.883   3.096
  287DMSO     S 2862   0.958   1.892   2.921
  287DMSO     C 2863   1.073   2.029   2.938
  287DMSO     O 2864   0.825   1.947   2.839
  287DMSO     H 2865   0.838   1.806   3.110
  287DMSO     H 2866   1.001   1.858   3.156
  287DMSO     H 2867   0.873   1.980   3.129
  287DMSO     H 2868   1.022   2.116   2.982
  287DMSO     H 2869   1.157   2.000   3.001
  287DMSO     H 2870   1.111   2.056   2.839
  288DMSO     C 2871   2.577   0.434   1.134
  288DMSO     S 2872   2.519   0.404   0.965
  288DMSO     C 2873   2.667   0.316   0.910
  288DMSO     O 2874   2.517   0.551   0.887
  288DMSO     H 2875   2.503   0.492   1.187
  288DMSO     H 2876   2.592   0.339   1.186
  288DMSO     H 2877   2.673   0.489   1.131
  288DMSO     H 2878   2.756   0.379   0.923
  288DMSO     H 2879   2.679   0.224   0.967
  288DMSO     H 2880   2.656   0.291   0.804
  289DMSO     C 2881   2.375   1.507   2.597
  289DMSO     S 2882   2.461   1.527   2.438
  289DMSO     C 2883   2.347   1.427   2.342
  289DMSO     O 2884   2.604   1.443   2.450
  289DMSO     H 2885   2.431   1.558   2.674
  289DMSO     H 2886   2.275   1.551   2.590
  289DMSO     H 2887   2.366   1.400   2.620
  289DMSO     H 2888   2.340   1.326   2.384
  289DMSO     H 2889   2.248   1.473   2.341
  289DMSO     H 2890   2.383   1.421   2.239
  290DMSO     C 2891   2.919   1.662   1.329
  290DMSO     S 2892   2.847   1.526   1.234
  290DMSO     C 2893   2.974   1.523   1.106
  290DMSO     O 2894   2.707   1.583   1.165
  290DMSO     H 2895   2.854   1.685   1.413
  290DMSO     H 2896   3.017   1.632   1.367
  290DMSO     H 2897   2.930   1.751   1.265
  290DMSO     H 2898   2.981   1.622   1.058
  290DMSO     H 2899   3.070   1.497   1.150
  290DMSO     H 2900   2.948   1.448   1.031
  291DMSO     C 2901   0.580   3.209   0.192
  291DMSO     S 2902   0.543   3.386   0.179
  291DMSO     C 2903   0.453   3.397   0.335
  291DMSO     O 2904   0.433   3.404   0.057
  291DMSO     H 2905   0.633   3.177   0.103
  291DMSO     H 2906   0.644   3.191   0.279
  291DMSO     H 2907   0.487   3.152   0.203
  291DMSO     H 2908   0.369   3.327   0.336
  291DMSO     H 2909   0.520   3.375   0.418
  291DMSO     H 2910   0.416   3.500   0.347
  292DMSO     C 2911   2.568   3.158   1.034
  292DMSO     S 2912   2.604   3.332   1.069
  292DMSO     C 2913   2.782   3.310   1.090
  292DMSO     O 2914   2.540   3.366   1.218
  292DMSO     H 2915   2.460   3.146   1.022
  292DMSO     H 2916   2.618   3.128   0.941
  292DMSO     H 2917   2.603   3.095   1.117
  292DMSO     H 2918   2.802   3.236   1.169
  292DMSO     H 2919   2.827   3.276   0.996
  292DMSO     H 2920   2.827   3.406   1.117
  293DMSO     C 2921   2.589   0.355   2.918
  293DMSO     S 2922   2.438   0.424   2.993
  293DMSO     C 2923   2.459   0.590   2.926
  293DMSO     O 2924   2.465   0.432   3.156
  293DMSO     H 2925   2.600   0.252   2.950
  293DMSO     H 2926   2.581   0.358   2.809
  293DMSO     H 2927   2.676   0.414   2.950
  293DMSO     H 2928   2.555   0.632   2.957
  293DMSO     H 2929   2.454   0.587   2.817
  293DMSO     H 2930   2.378   0.653   2.963
  294DMSO     C 2931   0.599   2.922   2.613
  294DMSO     S 2932   0.744   2.855   2.527
  294DMSO     C 2933   0.653   2.732   2.432
  294DMSO     O 2934   0.835   2.774   2.640
  294DMSO     H 2935   0.632   2.999   2.683
  294DMSO     H 2936   0.531   2.966   2.541
  294DMSO     H 2937   0.548   2.841   2.668
  294DMSO     H 2938   0.598   2.665   2.499
  294DMSO     H 2939   0.583   2.781   2.364
  294DMSO     H 2940   0.724   2.673   2.372
  295DMSO     C 2941   2.248   2.746   2.526
  295DMSO     S 2942   2.324   2.786   2.686
  295DMSO     C 2943   2.335   2.615   2.744
  295DMSO     O 2944   2.209   2.862   2.777
  295DMSO     H 2945   2.227   2.839   2.473
  295DMSO     H 2946   2.317   2.686   2.467
  295DMSO     H 2947   2.154   2.691   2.542
  295DMSO     H 2948   2.235   2.569   2.744
  295DMSO     H 2949   2.401   2.558   2.679
  295DMSO     H 2950   2.376   2.615   2.845
  296DMSO     C 2951   0.744   1.423   0.395
  296DMSO     S 2952   0.803   1.291   0.285
  296DMSO     C 2953   0.736   1.362   0.134
  296DMSO     O 2954   0.715   1.155   0.321
  296DMSO     H 2955   0.771   1.398   0.497
  296DMSO     H 2956   0.791   1.517   0.368
  296DMSO     H 2957   0.635   1.432   0.386
  296DMSO     H 2958   0.627   1.376   0.143
  296DMSO     H 2959   0.783   1.458   0.113
  296DMSO     H 2960   0.756   1.294   0.051
  297DMSO     C 2961   1.764   0.362   0.569
  297DMSO     S 2962   1.666   0.444   0.440
  297DMSO     C 2963   1.758   0.599   0.444
  297DMSO     O 2964   1.516   0.474   0.505
  297DMSO     H 2965   1.722   0.263   0.587
  297DMSO     H 2966   1.867   0.350   0.534
  297DMSO     H 2967   1.762   0.421   0.661
  297DMSO     H 2968   1.757   0.642   0.545
  297DMSO     H 2969   1.861   0.582   0.413
  297DMSO     H 2970   1.712   0.670   0.374
  298DMSO     C 2971   2.423   2.111   3.089
  298DMSO     S 2972   2.457   2.024   2.933
  298DMSO     C 2973   2.306   2.078   2.849
  298DMSO     O 2974   2.441   1.862   2.964
  298DMSO     H 2975   2.502   2.088   3.160
  298DMSO     H 2976   2.421   2.219   3.071
  298DMSO     H 2977   2.326   2.078   3.130
  298DMSO     H 2978   2.218   2.048   2.907
  298DMSO     H 2979   2.307   2.186   2.838
  298DMSO     H 2980   2.303   2.032   2.750
  299DMSO     C 2981   0.306   2.715   0.239
  299DMSO     S 2982   0.200   2.858   0.203
  299DMSO     C 2983   0.124   2.788   0.056
  299DMSO     O 2984   0.301   2.981   0.153
  299DMSO     H 2985   0.367   2.738   0.326
  299DMSO     H 2986   0.243   2.628   0.262
  299DMSO     H 2987   0.370   2.693   0.153
  299DMSO     H 2988   0.200   2.760  -0.018
  299DMSO     H 2989   0.066   2.699   0.083
  299DMSO     H 2990   0.056   2.862   0.012
  300DMSO     C 2991   2.725   0.366   1.399
  300DMSO     S 2992   2.627   0.319   1.545
  300DMSO     C 2993   2.722   0.417   1.663
  300DMSO     O 2994   2.659   0.159   1.575
  300DMSO     H 2995   2.686   0.313   1.312
  300DMSO     H 2996   2.716   0.474   1.382
  300DMSO     H 2997   2.830   0.340   1.415
  300DMSO     H 2998   2.828   0.387   1.660
  300DMSO     H 2999   2.713   0.523   1.639
  300DMSO     H 3000   2.682   0.400   1.763
  301DMSO     C 3001   2.719   1.778   3.285
  301DMSO     S 3002   2.739   1.654   3.417
  301DMSO     C 3003   2.736   1.772   3.553
  301DMSO     O 3004   2.894   1.595   3.405
  301DMSO     H 3005   2.723   1.728   3.189
  301DMSO     H 3006   2.623   1.828   3.296
  301DMSO     H 3007   2.800   1.852   3.292
  301DMSO     H 3008   2.815   1.847   3.541
  301DMSO     H 3009   2.639   1.822   3.557
  301DMSO     H 3010   2.751   1.718   3.647
  302DMSO     C 3011   0.617   0.821   1.945
  302DMSO     S 3012   0.493   0.779   2.071
  302DMSO     C 3013   0.597   0.662   2.160
  302DMSO     O 3014   0.374   0.692   1.994
  302DMSO     H 3015   0.573   0.891   1.874
  302DMSO     H 3016   0.703   0.869   1.993
  302DMSO     H 3017   0.650   0.730   1.893
  302DMSO     H 3018   0.631   0.582   2.093
  302DMSO     H 3019   0.683   0.713   2.203
  302DMSO     H 3020   0.538   0.617   2.242
  303DMSO     C 3021   1.656   2.780   3.734
  303DMSO     S 3022   1.836   2.775   3.710
  303DMSO     C 3023   1.866   2.640   3.825
  303DMSO     O 3024   1.898   2.913   3.777
  303DMSO     H 3025   1.615   2.861   3.675
  303DMSO     H 3026   1.611   2.686   3.702
  303DMSO     H 3027   1.633   2.797   3.841
  303DMSO     H 3028   1.828   2.666   3.925
  303DMSO     H 3029   1.816   2.549   3.790
  303DMSO     H 3030   1.974   2.621   3.830
  304DMSO     C 3031   1.030   2.213   1.620
  304DMSO     S 3032   0.849   2.203   1.624
  304DMSO     C 3033   0.824   2.364   1.701
  304DMSO     O 3034   0.809   2.087   1.735
  304DMSO     H 3035   1.070   2.120   1.579
  304DMSO     H 3036   1.061   2.296   1.556
  304DMSO     H 3037   1.069   2.228   1.721
  304DMSO     H 3038   0.877   2.368   1.797
  304DMSO     H 3039   0.860   2.443   1.636
  304DMSO     H 3040   0.717   2.378   1.719
  305DMSO     C 3041   2.853   1.580   0.228
  305DMSO     S 3042   2.815   1.707   0.352
  305DMSO     C 3043   2.655   1.753   0.283
  305DMSO     O 3044   2.919   1.833   0.326
  305DMSO     H 3045   2.951   1.540   0.248
  305DMSO     H 3046   2.779   1.500   0.234
  305DMSO     H 3047   2.850   1.625   0.127
  305DMSO     H 3048   2.666   1.785   0.178
  305DMSO     H 3049   2.586   1.669   0.287
  305DMSO     H 3050   2.613   1.836   0.341
  306DMSO     C 3051   0.991   2.748   2.366
  306DMSO     S 3052   0.972   2.886   2.250
  306DMSO     C 3053   1.019   2.793   2.103
  306DMSO     O 3054   1.094   2.994   2.282
  306DMSO     H 3055   0.971   2.784   2.467
  306DMSO     H 3056   0.920   2.669   2.341
  306DMSO     H 3057   1.094   2.709   2.360
  306DMSO     H 3058   1.119   2.750   2.115
  306DMSO     H 3059   0.947   2.713   2.085
  306DMSO     H 3060   1.019   2.861   2.017
  307DMSO     C 3061   3.581   1.011   1.891
  307DMSO     S 3062   3.622   0.949   2.057
  307DMSO     C 3063   3.565   1.095   2.146
  307DMSO     O 3064   3.788   0.946   2.068
  307DMSO     H 3065   3.612   0.937   1.818
  307DMSO     H 3066   3.473   1.025   1.884
  307DMSO     H 3067   3.632   1.106   1.873
  307DMSO     H 3068   3.617   1.185   2.109
  307DMSO     H 3069   3.457   1.108   2.131
  307DMSO     H 3070   3.585   1.082   2.253
  308DMSO     C 3071   0.494   0.244   3.410
  308DMSO     S 3072   0.485   0.066   3.442
  308DMSO     C 3073   0.552   0.015   3.283
  308DMSO     O 3074   0.324   0.025   3.443
  308DMSO     H 3075   0.452   0.298   3.494
  308DMSO     H 3076   0.599   0.274   3.396
  308DMSO     H 3077   0.437   0.269   3.319
  308DMSO     H 3078   0.492   0.055   3.201
  308DMSO     H 3079   0.655   0.050   3.273
  308DMSO     H 3080   0.552  -0.095   3.278
  309DMSO     C 3081   3.779   2.134   1.507
  309DMSO     S 3082   3.876   2.244   1.614
  309DMSO     C 3083   3.836   2.395   1.525
  309DMSO     O 3084   4.036   2.210   1.586
  309DMSO     H 3085   3.792   2.031   1.541
  309DMSO     H 3086   3.673   2.160   1.514
  309DMSO     H 3087   3.813   2.143   1.403
  309DMSO     H 3088   3.866   2.387   1.420
  309DMSO     H 3089   3.729   2.415   1.531
  309DMSO     H 3090   3.890   2.479   1.571
  310DMSO     C 3091   2.837   1.394   3.142
  310DMSO     S 3092   2.714   1.416   3.011
  310DMSO     C 3093   2.828   1.391   2.874
  310DMSO     O 3094   2.670   1.576   3.012
  310DMSO     H 3095   2.790   1.410   3.238
  310DMSO     H 3096   2.878   1.292   3.138
  310DMSO     H 3097   2.919   1.466   3.129
  310DMSO     H 3098   2.911   1.463   2.879
  310DMSO     H 3099   2.868   1.290   2.877
  310DMSO     H 3100   2.774   1.405   2.780
  311DMSO     C 3101   3.713   0.272   1.712
  311DMSO     S 3102   3.599   0.199   1.832
  311DMSO     C 3103   3.656   0.295   1.973
  311DMSO     O 3104   3.647   0.042   1.855
  311DMSO     H 3105   3.699   0.224   1.615
  311DMSO     H 3106   3.692   0.379   1.702
  311DMSO     H 3107   3.817   0.259   1.746
  311DMSO     H 3108   3.763   0.280   1.989
  311DMSO     H 3109   3.636   0.401   1.956
  311DMSO     H 3110   3.601   0.263   2.062
  312DMSO     C 3111   3.088   3.602   2.567
  312DMSO     S 3112   3.085   3.739   2.686
  312DMSO     C 3113   3.227   3.826   2.617
  312DMSO     O 3114   3.131   3.676   2.833
  312DMSO     H 3115   3.009   3.531   2.593
  312DMSO     H 3116   3.069   3.641   2.466
  312DMSO     H 3117   3.185   3.552   2.569
  312DMSO     H 3118   3.315   3.760   2.616
  312DMSO     H 3119   3.205   3.858   2.516
  312DMSO     H 3120   3.248   3.914   2.679
  313DMSO     C 3121   1.905   1.674   0.355
  313DMSO     S 3122   1.802   1.535   0.300
  313DMSO     C 3123   1.665   1.636   0.240
  313DMSO     O 3124   1.750   1.456   0.436
  313DMSO     H 3125   1.996   1.634   0.401
  313DMSO     H 3126   1.933   1.735   0.269
  313DMSO     H 3127   1.850   1.734   0.428
  313DMSO     H 3128   1.627   1.700   0.321
  313DMSO     H 3129   1.699   1.698   0.157
  313DMSO     H 3130   1.586   1.570   0.204
  314DMSO     C 3131   1.390   1.467   0.952
  314DMSO     S 3132   1.283   1.528   0.819
  314DMSO     C 3133   1.412   1.621   0.733
  314DMSO     O 3134   1.179   1.638   0.887
  314DMSO     H 3135   1.330   1.410   1.022
  314DMSO     H 3136   1.468   1.403   0.910
  314DMSO     H 3137   1.437   1.552   1.004
  314DMSO     H 3138   1.457   1.695   0.801
  314DMSO     H 3139   1.488   1.553   0.697
  314DMSO     H 3140   1.367   1.673   0.648
  315DMSO     C 3141   0.142   2.473   3.638
  315DMSO     S 3142   0.084   2.539   3.479
  315DMSO     C 3143   0.248   2.581   3.416
  315DMSO     O 3144   0.005   2.682   3.512
  315DMSO     H 3145   0.056   2.444   3.697
  315DMSO     H 3146   0.205   2.385   3.620
  315DMSO     H 3147   0.201   2.550   3.691
  315DMSO     H 3148   0.299   2.650   3.484
  315DMSO     H 3149   0.307   2.491   3.404
  315DMSO     H 3150   0.237   2.629   3.318
  316DMSO     C 3151   3.332   2.971   0.930
  316DMSO     S 3152   3.304   2.933   0.754
  316DMSO     C 3153   3.273   3.103   0.703
  316DMSO     O 3154   3.159   2.851   0.745
  316DMSO     H 3155   3.349   2.878   0.983
  316DMSO     H 3156   3.420   3.034   0.939
  316DMSO     H 3157   3.244   3.022   0.971
  316DMSO     H 3158   3.190   3.146   0.761
  316DMSO     H 3159   3.362   3.163   0.719
  316DMSO     H 3160   3.248   3.104   0.597
  317DMSO     C 3161   3.279   2.775   1.788
  317DMSO     S 3162   3.209   2.914   1.695
  317DMSO     C 3163   3.358   2.950   1.601
  317DMSO     O 3164   3.187   3.038   1.803
  317DMSO     H 3165   3.205   2.738   1.858
  317DMSO     H 3166   3.306   2.694   1.719
  317DMSO     H 3167   3.369   2.808   1.843
  317DMSO     H 3168   3.442   2.971   1.669
  317DMSO     H 3169   3.383   2.866   1.537
  317DMSO     H 3170   3.340   3.038   1.538
  318DMSO     C 3171   0.604   2.814   0.488
  318DMSO     S 3172   0.502   2.667   0.521
  318DMSO     C 3173   0.597   2.609   0.663
  318DMSO     O 3174   0.528   2.561   0.396
  318DMSO     H 3175   0.565   2.864   0.400
  318DMSO     H 3176   0.598   2.882   0.574
  318DMSO     H 3177   0.708   2.783   0.472
  318DMSO     H 3178   0.702   2.594   0.634
  318DMSO     H 3179   0.592   2.682   0.743
  318DMSO     H 3180   0.555   2.515   0.698
  319DMSO     C 3181   3.453   2.944   0.355
  319DMSO     S 3182   3.408   2.818   0.479
  319DMSO     C 3183   3.495   2.682   0.399
  319DMSO     O 3184   3.245   2.790   0.463
  319DMSO     H 3185   3.405   3.038   0.382
  319DMSO     H 3186   3.561   2.957   0.354
  319DMSO     H 3187   3.419   2.912   0.256
  319DMSO     H 3188   3.458   2.668   0.296
  319DMSO     H 3189   3.602   2.702   0.396
  319DMSO     H 3190   3.477   2.590   0.456
  320DMSO     C 3191   0.376   3.434   3.421
  320DMSO     S 3192   0.516   3.347   3.346
  320DMSO     C 3193   0.457   3.359   3.176
  320DMSO     O 3194   0.504   3.188   3.392
  320DMSO     H 3195   0.389   3.436   3.529
  320DMSO     H 3196   0.374   3.538   3.384
  320DMSO     H 3197   0.282   3.384   3.395
  320DMSO     H 3198   0.357   3.314   3.167
  320DMSO     H 3199   0.453   3.463   3.146
  320DMSO     H 3200   0.527   3.306   3.111
  321DMSO     C 3201   2.138   2.328   3.220
  321DMSO     S 3202   2.291   2.317   3.317
  321DMSO     C 3203   2.234   2.186   3.427
  321DMSO     O 3204   2.301   2.456   3.406
  321DMSO     H 3205   2.148   2.407   3.147
  321DMSO     H 3206   2.121   2.233   3.168
  321DMSO     H 3207   2.053   2.349   3.287
  321DMSO     H 3208   2.142   2.217   3.479
  321DMSO     H 3209   2.215   2.095   3.369
  321DMSO     H 3210   2.312   2.165   3.500
  322DMSO     C 3211   1.800   2.631   0.470
  322DMSO     S 3212   1.826   2.768   0.353
  322DMSO     C 3213   1.683   2.730   0.250
  322DMSO     O 3214   1.962   2.731   0.266
  322DMSO     H 3215   1.880   2.632   0.543
  322DMSO     H 3216   1.705   2.645   0.522
  322DMSO     H 3217   1.798   2.536   0.416
  322DMSO     H 3218   1.690   2.627   0.211
  322DMSO     H 3219   1.591   2.741   0.307
  322DMSO     H 3220   1.681   2.800   0.166
  323DMSO     C 3221   1.253   0.521   1.804
  323DMSO     S 3222   1.169   0.661   1.884
  323DMSO     C 3223   1.123   0.571   2.033
  323DMSO     O 3224   1.031   0.690   1.798
  323DMSO     H 3225   1.287   0.552   1.706
  323DMSO     H 3226   1.340   0.491   1.864
  323DMSO     H 3227   1.184   0.437   1.795
  323DMSO     H 3228   1.063   0.483   2.008
  323DMSO     H 3229   1.212   0.540   2.087
  323DMSO     H 3230   1.064   0.638   2.098
  324DMSO     C 3231   1.063   2.749   2.885
  324DMSO     S 3232   1.061   2.760   3.067
  324DMSO     C 3233   1.044   2.940   3.074
  324DMSO     O 3234   1.214   2.723   3.119
  324DMSO     H 3235   1.077   2.645   2.857
  324DMSO     H 3236   0.967   2.784   2.846
  324DMSO     H 3237   1.144   2.811   2.845
  324DMSO     H 3238   1.126   2.988   3.020
  324DMSO     H 3239   0.949   2.969   3.029
  324DMSO     H 3240   1.045   2.971   3.178
  325DMSO     C 3241   3.003   0.386   0.700
  325DMSO     S 3242   3.123   0.520   0.724
  325DMSO     C 3243   3.030   0.644   0.633
  325DMSO     O 3244   3.257   0.481   0.635
  325DMSO     H 3245   3.042   0.295   0.746
  325DMSO     H 3246   2.909   0.412   0.748
  325DMSO     H 3247   2.987   0.370   0.593
  325DMSO     H 3248   3.012   0.610   0.530
  325DMSO     H 3249   2.935   0.664   0.682
  325DMSO     H 3250   3.089   0.737   0.630
  326DMSO     C 3251   3.703   0.645   2.087
  326DMSO     S 3252   3.871   0.626   2.021
  326DMSO     C 3253   3.820   0.569   1.858
  326DMSO     O 3254   3.939   0.497   2.100
  326DMSO     H 3255   3.709   0.676   2.191
  326DMSO     H 3256   3.650   0.722   2.030
  326DMSO     H 3257   3.649   0.550   2.080
  326DMSO     H 3258   3.757   0.479   1.867
  326DMSO     H 3259   3.764   0.647   1.807
  326DMSO     H 3260   3.909   0.545   1.799
  327DMSO     C 3261   3.867   2.225   1.112
  327DMSO     S 3262   3.749   2.191   0.979
  327DMSO     C 3263   3.810   2.318   0.867
  327DMSO     O 3264   3.600   2.240   1.033
  327DMSO     H 3265   3.845   2.159   1.196
  327DMSO     H 3266   3.969   2.204   1.077
  327DMSO     H 3267   3.860   2.330   1.143
  327DMSO     H 3268   3.807   2.417   0.915
  327DMSO     H 3269   3.913   2.295   0.838
  327DMSO     H 3270   3.748   2.319   0.777
  328DMSO     C 3271   1.828   0.793   3.198
  328DMSO     S 3272   1.678   0.850   3.283
  328DMSO     C 3273   1.722   0.783   3.445
  328DMSO     O 3274   1.552   0.760   3.224
  328DMSO     H 3275   1.821   0.820   3.093
  328DMSO     H 3276   1.915   0.842   3.242
  328DMSO     H 3277   1.837   0.684   3.209
  328DMSO     H 3278   1.739   0.675   3.438
  328DMSO     H 3279   1.812   0.832   3.482
  328DMSO     H 3280   1.640   0.803   3.515
  329DMSO     C 3281   3.728   2.905   2.776
  329DMSO     S 3282   3.635   2.922   2.621
  329DMSO     C 3283   3.774   2.883   2.512
  329DMSO     O 3284   3.601   3.083   2.602
  329DMSO     H 3285   3.662   2.930   2.859
  329DMSO     H 3286   3.762   2.802   2.787
  329DMSO     H 3287   3.814   2.973   2.775
  329DMSO     H 3288   3.857   2.952   2.530
  329DMSO     H 3289   3.807   2.781   2.530
  329DMSO     H 3290   3.741   2.891   2.408
  330DMSO     C 3291   1.476   2.484   0.794
  330DMSO     S 3292   1.408   2.397   0.938
  330DMSO     C 3293   1.517   2.475   1.059
  330DMSO     O 3294   1.453   2.238   0.925
  330DMSO     H 3295   1.426   2.448   0.705
  330DMSO     H 3296   1.458   2.591   0.804
  330DMSO     H 3297   1.584   2.465   0.787
  330DMSO     H 3298   1.622   2.457   1.033
  330DMSO     H 3299   1.498   2.582   1.063
  330DMSO     H 3300   1.496   2.432   1.158
  331DMSO     C 3301   3.000   2.525   0.674
  331DMSO     S 3302   3.099   2.444   0.803
  331DMSO     C 3303   3.035   2.540   0.940
  331DMSO     O 3304   3.257   2.490   0.778
  331DMSO     H 3305   3.027   2.484   0.578
  331DMSO     H 3306   2.894   2.507   0.693
  331DMSO     H 3307   3.019   2.633   0.676
  331DMSO     H 3308   3.051   2.648   0.923
  331DMSO     H 3309   2.928   2.522   0.952
  331DMSO     H 3310   3.086   2.510   1.032
  332DMSO     C 3311   1.858   2.869   0.718
  332DMSO     S 3312   1.858   2.806   0.888
  332DMSO     C 3313   2.021   2.728   0.879
  332DMSO     O 3314   1.745   2.684   0.895
  332DMSO     H 3315   1.763   2.918   0.699
  332DMSO     H 3316   1.939   2.942   0.706
  332DMSO     H 3317   1.872   2.786   0.648
  332DMSO     H 3318   2.023   2.655   0.797
  332DMSO     H 3319   2.097   2.804   0.863
  332DMSO     H 3320   2.041   2.677   0.974
  333DMSO     C 3321   1.294   1.193   0.877
  333DMSO     S 3322   1.376   1.091   1.003
  333DMSO     C 3323   1.332   1.196   1.143
  333DMSO     O 3324   1.540   1.107   0.978
  333DMSO     H 3325   1.312   1.149   0.779
  333DMSO     H 3326   1.186   1.195   0.897
  333DMSO     H 3327   1.334   1.295   0.880
  333DMSO     H 3328   1.369   1.298   1.127
  333DMSO     H 3329   1.224   1.198   1.155
  333DMSO     H 3330   1.378   1.155   1.234
  334DMSO     C 3331   1.759   2.673   2.210
  334DMSO     S 3332   1.614   2.588   2.278
  334DMSO     C 3333   1.678   2.573   2.446
  334DMSO     O 3334   1.612   2.436   2.212
  334DMSO     H 3335   1.744   2.689   2.104
  334DMSO     H 3336   1.771   2.770   2.260
  334DMSO     H 3337   1.849   2.613   2.227
  334DMSO     H 3338   1.774   2.520   2.446
  334DMSO     H 3339   1.692   2.672   2.489
  334DMSO     H 3340   1.605   2.518   2.507
  335DMSO     C 3341   1.327   1.325   3.678
  335DMSO     S 3342   1.163   1.288   3.749
  335DMSO     C 3343   1.225   1.190   3.887
  335DMSO     O 3344   1.087   1.185   3.644
  335DMSO     H 3345   1.313   1.382   3.587
  335DMSO     H 3346   1.385   1.383   3.749
  335DMSO     H 3347   1.379   1.231   3.656
  335DMSO     H 3348   1.285   1.106   3.850
  335DMSO     H 3349   1.286   1.252   3.953
  335DMSO     H 3350   1.139   1.152   3.944
  336DMSO     C 3351   1.875   0.520   1.632
  336DMSO     S 3352   1.724   0.420   1.644
  336DMSO     C 3353   1.609   0.556   1.621
  336DMSO     O 3354   1.712   0.370   1.802
  336DMSO     H 3355   1.961   0.457   1.648
  336DMSO     H 3356   1.881   0.565   1.532
  336DMSO     H 3357   1.873   0.600   1.708
  336DMSO     H 3358   1.625   0.634   1.697
  336DMSO     H 3359   1.622   0.600   1.522
  336DMSO     H 3360   1.507   0.518   1.630
  337DMSO     C 3361   2.031   2.357   1.951
  337DMSO     S 3362   2.087   2.317   1.783
  337DMSO     C 3363   1.949   2.397   1.699
  337DMSO     O 3364   2.069   2.153   1.764
  337DMSO     H 3365   2.100   2.313   2.023
  337DMSO     H 3366   2.030   2.465   1.965
  337DMSO     H 3367   1.930   2.317   1.967
  337DMSO     H 3368   1.853   2.354   1.733
  337DMSO     H 3369   1.950   2.504   1.719
  337DMSO     H 3370   1.960   2.381   1.591
  338DMSO     C 3371   1.118   2.433   1.157
  338DMSO     S 3372   1.064   2.341   1.304
  338DMSO     C 3373   1.230   2.309   1.368
  338DMSO     O 3374   1.002   2.197   1.251
  338DMSO     H 3375   1.031   2.460   1.099
  338DMSO     H 3376   1.170   2.524   1.188
  338DMSO     H 3377   1.186   2.370   1.097
  338DMSO     H 3378   1.289   2.255   1.293
  338DMSO     H 3379   1.279   2.402   1.393
  338DMSO     H 3380   1.221   2.248   1.458
  339DMSO     C 3381   1.054   0.828   3.871
  339DMSO     S 3382   0.931   0.832   3.738
  339DMSO     C 3383   1.049   0.865   3.605
  339DMSO     O 3384   0.840   0.969   3.759
  339DMSO     H 3385   1.002   0.813   3.966
  339DMSO     H 3386   1.123   0.745   3.855
  339DMSO     H 3387   1.109   0.922   3.874
  339DMSO     H 3388   1.105   0.957   3.626
  339DMSO     H 3389   1.118   0.781   3.596
  339DMSO     H 3390   0.994   0.876   3.511
  340DMSO     C 3391   0.275   2.185  -0.011
  340DMSO     S 3392   0.192   2.176   0.150
  340DMSO     C 3393   0.197   1.997   0.164
  340DMSO     O 3394   0.033   2.220   0.124
  340DMSO     H 3395   0.280   2.289  -0.043
  340DMSO     H 3396   0.377   2.146  -0.001
  340DMSO     H 3397   0.220   2.125  -0.085
  340DMSO     H 3398   0.147   1.950   0.077
  340DMSO     H 3399   0.300   1.963   0.169
  340DMSO     H 3400   0.145   1.967   0.255
  341PF6      F 3401   0.671   2.763   3.169
  341PF6      P 3402   0.747   2.907   3.166
  341PF6      F 3403   0.745   2.904   3.003
  341PF6      F 3404   0.603   2.983   3.167
  341PF6      F 3405   0.823   3.051   3.163
  341PF6      F 3406   0.749   2.909   3.329
  341PF6      F 3407   0.891   2.830   3.165
  342PF6      F 3408   2.572   3.059   1.308
  342PF6      P 3409   2.733   3.061   1.328
  342PF6      F 3410   2.714   3.060   1.490
  342PF6      F 3411   2.736   2.898   1.327
  342PF6      F 3412   2.895   3.064   1.348
  342PF6      F 3413   2.753   3.063   1.166
  342PF6      F 3414   2.731   3.224   1.329
  343PF6      F 3415   2.221   0.781   2.962
  343PF6      P 3416   2.058   0.783   2.959
  343PF6      F 3417   2.054   0.692   3.094
  343PF6      F 3418   2.058   0.919   3.050
  343PF6      F 3419   1.895   0.786   2.956
  343PF6      F 3420   2.062   0.874   2.824
  343PF6      F 3421   2.058   0.648   2.868
  344PF6      F 3422   1.676   3.459   3.072
  344PF6      P 3423   1.575   3.509   3.189
  344PF6      F 3424   1.526   3.632   3.094
  344PF6      F 3425   1.457   3.415   3.128
  344PF6      F 3426   1.473   3.560   3.306
  344PF6      F 3427   1.623   3.386   3.285
  344PF6      F 3428   1.692   3.604   3.251
  345PF6      F 3429   3.443   0.301   3.435
  345PF6      P 3430   3.420   0.140   3.424
  345PF6      F 3431   3.263   0.160   3.461
  345PF6      F 3432   3.385   0.156   3.265
  345PF6      F 3433   3.397  -0.021   3.413
  345PF6      F 3434   3.578   0.120   3.386
  345PF6      F 3435   3.456   0.124   3.582
  346PF6      F 3436   0.358   1.220   0.275
  346PF6      P 3437   0.382   1.152   0.421
  346PF6      F 3438   0.409   1.008   0.349
  346PF6      F 3439   0.541   1.187   0.410
  346PF6      F 3440   0.406   1.083   0.566
  346PF6      F 3441   0.355   1.296   0.493
  346PF6      F 3442   0.223   1.117   0.431
  347PF6      F 3443   2.966   0.640   2.166
  347PF6      P 3444   3.103   0.700   2.230
  347PF6      F 3445   3.052   0.657   2.379
  347PF6      F 3446   3.175   0.554   2.213
  347PF6      F 3447   3.241   0.760   2.294
  347PF6      F 3448   3.154   0.743   2.081
  347PF6      F 3449   3.032   0.845   2.247
  348PF6      F 3450   3.664   2.377   1.928
  348PF6      P 3451   3.527   2.324   1.999
  348PF6      F 3452   3.473   2.269   1.856
  348PF6      F 3453   3.598   2.180   2.028
  348PF6      F 3454   3.391   2.272   2.071
  348PF6      F 3455   3.582   2.379   2.143
  348PF6      F 3456   3.457   2.468   1.971
  349PF6      F 3457   2.711   3.389   1.567
  349PF6      P 3458   2.588   3.446   1.477
  349PF6      F 3459   2.680   3.435   1.343
  349PF6      F 3460   2.535   3.293   1.453
  349PF6      F 3461   2.464   3.503   1.388
  349PF6      F 3462   2.495   3.456   1.611
  349PF6      F 3463   2.640   3.598   1.501
  350PF6      F 3464   3.738   1.727   1.201
  350PF6      P 3465   3.584   1.676   1.213
  350PF6      F 3466   3.597   1.671   1.375
  350PF6      F 3467   3.533   1.831   1.222
  350PF6      F 3468   3.429   1.625   1.224
  350PF6      F 3469   3.570   1.681   1.050
  350PF6      F 3470   3.634   1.521   1.203
  351PF6      F 3471   2.879   3.094   2.258
  351PF6      P 3472   2.913   3.242   2.318
  351PF6      F 3473   2.900   3.184   2.470
  351PF6      F 3474   3.072   3.207   2.318
  351PF6      F 3475   2.946   3.390   2.378
  351PF6      F 3476   2.925   3.301   2.167
  351PF6      F 3477   2.753   3.278   2.319
  352PF6      F 3478   3.093   3.482   2.935
  352PF6      P 3479   2.975   3.372   2.956
  352PF6      F 3480   2.987   3.391   3.118
  352PF6      F 3481   2.863   3.490   2.951
  352PF6      F 3482   2.857   3.262   2.978
  352PF6      F 3483   2.963   3.353   2.795
  352PF6      F 3484   3.087   3.253   2.962
  353PF6      F 3485   3.045   0.064   3.208
  353PF6      P 3486   2.961   0.009   3.337
  353PF6      F 3487   2.889   0.154   3.353
  353PF6      F 3488   2.841  -0.039   3.237
  353PF6      F 3489   2.877  -0.047   3.465
  353PF6      F 3490   3.032  -0.137   3.321
  353PF6      F 3491   3.081   0.056   3.436
  354PF6      F 3492   2.116   3.003   1.732
  354PF6      P 3493   2.040   3.120   1.647
  354PF6      F 3494   1.972   3.176   1.784
  354PF6      F 3495   2.167   3.219   1.669
  354PF6      F 3496   1.964   3.236   1.562
  354PF6      F 3497   2.108   3.064   1.510
  354PF6      F 3498   1.913   3.020   1.624
  355PF6      F 3499   3.468   2.603   3.911
  355PF6      P 3500   3.514   2.676   3.773
  355PF6      F 3501   3.414   2.800   3.804
  355PF6      F 3502   3.634   2.752   3.853
  355PF6      F 3503   3.561   2.749   3.635
  355PF6      F 3504   3.615   2.552   3.741
  355PF6      F 3505   3.395   2.600   3.692
  356PF6      F 3506   2.454   1.828   2.332
  356PF6      P 3507   2.598   1.860   2.402
  356PF6      F 3508   2.675   1.815   2.266
  356PF6      F 3509   2.590   2.013   2.346
  356PF6      F 3510   2.741   1.893   2.472
  356PF6      F 3511   2.521   1.906   2.538
  356PF6      F 3512   2.605   1.707   2.458
  357PF6      F 3513   0.815   3.350   0.608
  357PF6      P 3514   0.962   3.379   0.545
  357PF6      F 3515   1.005   3.456   0.682
  357PF6      F 3516   1.017   3.239   0.606
  357PF6      F 3517   1.109   3.409   0.481
  357PF6      F 3518   0.918   3.303   0.408
  357PF6      F 3519   0.907   3.520   0.484
  358PF6      F 3520   1.437   2.377   2.443
  358PF6      P 3521   1.278   2.414   2.438
  358PF6      F 3522   1.263   2.331   2.299
  358PF6      F 3523   1.243   2.279   2.522
  358PF6      F 3524   1.120   2.452   2.433
  358PF6      F 3525   1.294   2.497   2.578
  358PF6      F 3526   1.313   2.549   2.354
  359PF6      F 3527   3.179   2.303   2.933
  359PF6      P 3528   3.285   2.190   2.984
  359PF6      F 3529   3.161   2.086   3.009
  359PF6      F 3530   3.299   2.134   2.831
  359PF6      F 3531   3.390   2.076   3.034
  359PF6      F 3532   3.408   2.293   2.958
  359PF6      F 3533   3.271   2.245   3.136
  360PF6      F 3534   0.417   2.845   1.635
  360PF6      P 3535   0.343   2.984   1.677
  360PF6      F 3536   0.452   3.068   1.589
  360PF6      F 3537   0.247   2.972   1.545
  360PF6      F 3538   0.269   3.123   1.718
  360PF6      F 3539   0.234   2.900   1.764
  360PF6      F 3540   0.439   2.996   1.808
  361PF6      F 3541   3.768   1.188   2.722
  361PF6      P 3542   3.624   1.140   2.781
  361PF6      F 3543   3.590   1.068   2.639
  361PF6      F 3544   3.692   1.002   2.835
  361PF6      F 3545   3.480   1.091   2.840
  361PF6      F 3546   3.658   1.212   2.923
  361PF6      F 3547   3.556   1.278   2.727
  362PF6      F 3548   2.490   0.267   3.751
  362PF6      P 3549   2.590   0.396   3.761
  362PF6      F 3550   2.574   0.395   3.923
  362PF6      F 3551   2.718   0.295   3.774
  362PF6      F 3552   2.690   0.524   3.771
  362PF6      F 3553   2.606   0.396   3.599
  362PF6      F 3554   2.462   0.496   3.749
  363PF6      F 3555   1.127   3.133   1.706
  363PF6      P 3556   1.057   3.279   1.687
  363PF6      F 3557   1.105   3.282   1.531
  363PF6      F 3558   0.918   3.207   1.643
  363PF6      F 3559   0.988   3.425   1.668
  363PF6      F 3560   1.009   3.276   1.843
  363PF6      F 3561   1.196   3.351   1.731
  364PF6      F 3562   2.862   0.910   2.928
  364PF6      P 3563   2.750   0.822   3.008
  364PF6      F 3564   2.649   0.950   3.008
  364PF6      F 3565   2.687   0.773   2.865
  364PF6      F 3566   2.638   0.734   3.087
  364PF6      F 3567   2.850   0.694   3.007
  364PF6      F 3568   2.812   0.871   3.150
  365PF6      F 3569   1.716  -0.106   0.265
  365PF6      P 3570   1.642   0.038   0.285
  365PF6      F 3571   1.730   0.064   0.420
  365PF6      F 3572   1.757   0.110   0.195
  365PF6      F 3573   1.568   0.182   0.306
  365PF6      F 3574   1.554   0.011   0.151
  365PF6      F 3575   1.527  -0.034   0.375
  366PF6      F 3576   1.539   0.696   0.209
  366PF6      P 3577   1.550   0.834   0.124
  366PF6      F 3578   1.477   0.915   0.245
  366PF6      F 3579   1.695   0.864   0.191
  366PF6      F 3580   1.561   0.973   0.038
  366PF6      F 3581   1.622   0.754   0.002
  366PF6      F 3582   1.404   0.805   0.057
  367PF6      F 3583   2.132   0.103   3.340
  367PF6      P 3584   2.060   0.016   3.458
  367PF6      F 3585   1.935   0.121   3.458
  367PF6      F 3586   1.984  -0.073   3.345
  367PF6      F 3587   1.988  -0.070   3.575
  367PF6      F 3588   2.185  -0.088   3.457
  367PF6      F 3589   2.136   0.106   3.570
  368PF6      F 3590   0.228   0.678   0.477
  368PF6      P 3591   0.177   0.817   0.545
  368PF6      F 3592   0.026   0.757   0.556
  368PF6      F 3593   0.212   0.757   0.693
  368PF6      F 3594   0.126   0.956   0.614
  368PF6      F 3595   0.328   0.878   0.534
  368PF6      F 3596   0.142   0.877   0.398
  369PF6      F 3597   0.661   1.908   3.418
  369PF6      P 3598   0.770   1.786   3.421
  369PF6      F 3599   0.890   1.894   3.439
  369PF6      F 3600   0.755   1.776   3.583
  369PF6      F 3601   0.878   1.665   3.423
  369PF6      F 3602   0.649   1.678   3.403
  369PF6      F 3603   0.785   1.796   3.259
  370PF6      F 3604   3.486   0.600   0.249
  370PF6      P 3605   3.630   0.604   0.173
  370PF6      F 3606   3.641   0.442   0.183
  370PF6      F 3607   3.554   0.590   0.029
  370PF6      F 3608   3.774   0.609   0.097
  370PF6      F 3609   3.619   0.767   0.163
  370PF6      F 3610   3.705   0.618   0.317
  371PF6      F 3611   1.591   0.620   3.123
  371PF6      P 3612   1.524   0.476   3.088
  371PF6      F 3613   1.482   0.457   3.244
  371PF6      F 3614   1.381   0.550   3.059
  371PF6      F 3615   1.457   0.332   3.052
  371PF6      F 3616   1.566   0.496   2.931
  371PF6      F 3617   1.667   0.403   3.116
  372PF6      F 3618   2.271   0.154   2.795
  372PF6      P 3619   2.276   0.266   2.677
  372PF6      F 3620   2.121   0.234   2.639
  372PF6      F 3621   2.226   0.380   2.782
  372PF6      F 3622   2.281   0.378   2.558
  372PF6      F 3623   2.431   0.299   2.714
  372PF6      F 3624   2.326   0.153   2.571
  373PF6      F 3625   0.554   0.543   2.463
  373PF6      P 3626   0.408   0.567   2.532
  373PF6      F 3627   0.477   0.664   2.644
  373PF6      F 3628   0.383   0.695   2.436
  373PF6      F 3629   0.263   0.590   2.602
  373PF6      F 3630   0.340   0.469   2.421
  373PF6      F 3631   0.433   0.438   2.629
  374PF6      F 3632   3.854   3.404   0.787
  374PF6      P 3633   3.762   3.514   0.710
  374PF6      F 3634   3.891   3.563   0.625
  374PF6      F 3635   3.728   3.404   0.595
  374PF6      F 3636   3.669   3.624   0.633
  374PF6      F 3637   3.632   3.464   0.795
  374PF6      F 3638   3.796   3.624   0.825
  375LI      Li 3639   2.991   3.238   3.464
  376LI      Li 3640   1.039   2.848   0.384
  377LI      Li 3641   2.819   3.553   0.558
  378LI      Li 3642   0.724   3.276   1.818
  379LI      Li 3643   2.686   2.728   2.990
  380LI      Li 3644   2.798   0.895   3.475
  381LI      Li 3645   0.656   3.047   1.216
  382LI      Li 3646   0.950   2.743   0.978
  383LI      Li 3647   3.177   1.026   0.978
  384LI      Li 3648   0.844   1.265   1.626
  385LI      Li 3649   3.196   0.242   1.145
  386LI      Li 3650   0.517   3.820   1.680
  387LI      Li 3651   3.800   0.901   1.860
  388LI      Li 3652   3.177   3.033   3.282
  389LI      Li 3653   1.240   3.103   0.163
  390LI      Li 3654   3.326   1.507   2.289
  391LI      Li 3655   0.905   1.445   2.796
  392LI      Li 3656   0.192   3.724   3.777
  393LI      Li 3657   1.019   3.672   1.960
  394LI      Li 3658   0.825   1.006   1.426
  395LI      Li 3659   3.122   0.296   1.600
  396LI      Li 3660   2.823   1.109   1.397
  397LI      Li 3661   0.938   0.776   1.084
  398LI      Li 3662   2.477   3.689   2.234
  399LI      Li 3663   1.610   1.428   0.726
  400LI      Li 3664   3.628   2.871   3.385
  401LI      Li 3665   1.291   2.532   3.062
  402LI      Li 3666   1.934   0.785   2.211
  403LI      Li 3667   1.950   0.042   1.684
  404LI      Li 3668   0.193   2.977   3.561
  405LI      Li 3669   3.682   3.583   1.175
  406LI      Li 3670   1.420   0.019   3.048
  407LI      Li 3671   0.021   2.225   3.721
  408LI      Li 3672   2.376   0.750   1.241
   3.83000   3.83000   3.83000
