A Gromacs structure file written by ASE
 3740
    1EC       O    1   2.179   1.907   1.915
    1EC       C    2   2.057   1.908   1.913
    1EC       O    3   1.978   1.798   1.928
    1EC       C    4   1.847   1.837   1.895
    1EC       C    5   1.848   1.984   1.923
    1EC       O    6   1.982   2.021   1.894
    1EC       H    7   1.830   1.815   1.789
    1EC       H    8   1.773   1.784   1.955
    1EC       H    9   1.827   2.006   2.028
    1EC       H   10   1.778   2.040   1.860
    2EC       O   11   0.685   0.429  -0.107
    2EC       C   12   0.713   0.328  -0.045
    2EC       O   13   0.787   0.224  -0.094
    2EC       C   14   0.775   0.118  -0.002
    2EC       C   15   0.745   0.189   0.126
    2EC       O   16   0.672   0.303   0.083
    2EC       H   17   0.693   0.054  -0.035
    2EC       H   18   0.867   0.060   0.003
    2EC       H   19   0.836   0.222   0.177
    2EC       H   20   0.685   0.128   0.195
    3EC       O   21   3.689   0.272   0.355
    3EC       C   22   3.721   0.190   0.271
    3EC       O   23   3.685   0.058   0.273
    3EC       C   24   3.761  -0.007   0.174
    3EC       C   25   3.792   0.104   0.078
    3EC       O   26   3.799   0.218   0.162
    3EC       H   27   3.852  -0.047   0.221
    3EC       H   28   3.706  -0.088   0.127
    3EC       H   29   3.712   0.118   0.005
    3EC       H   30   3.887   0.089   0.025
    4EC       O   31   2.447   3.121   1.439
    4EC       C   32   2.445   3.181   1.333
    4EC       O   33   2.511   3.297   1.308
    4EC       C   34   2.464   3.346   1.185
    4EC       C   35   2.418   3.221   1.116
    4EC       O   36   2.374   3.139   1.223
    4EC       H   37   2.381   3.415   1.205
    4EC       H   38   2.542   3.398   1.130
    4EC       H   39   2.499   3.171   1.063
    4EC       H   40   2.336   3.240   1.045
    5EC       O   41   0.240   1.494   0.402
    5EC       C   42   0.137   1.458   0.458
    5EC       O   43   0.027   1.410   0.394
    5EC       C   44  -0.076   1.404   0.489
    5EC       C   45  -0.001   1.389   0.618
    5EC       O   46   0.119   1.461   0.593
    5EC       H   47  -0.133   1.497   0.485
    5EC       H   48  -0.143   1.320   0.471
    5EC       H   49   0.024   1.285   0.639
    5EC       H   50  -0.055   1.431   0.704
    6EC       O   51   0.403   0.114   0.412
    6EC       C   52   0.393   0.213   0.342
    6EC       O   53   0.440   0.336   0.374
    6EC       C   54   0.388   0.426   0.279
    6EC       C   55   0.364   0.338   0.160
    6EC       O   56   0.332   0.213   0.219
    6EC       H   57   0.295   0.468   0.319
    6EC       H   58   0.458   0.507   0.257
    6EC       H   59   0.453   0.327   0.099
    6EC       H   60   0.281   0.373   0.097
    7EC       O   61   2.397   0.495   0.352
    7EC       C   62   2.403   0.506   0.230
    7EC       O   63   2.449   0.410   0.145
    7EC       C   64   2.463   0.470   0.019
    7EC       C   65   2.365   0.583   0.025
    7EC       O   66   2.366   0.619   0.162
    7EC       H   67   2.566   0.505   0.009
    7EC       H   68   2.441   0.400  -0.061
    7EC       H   69   2.264   0.551  -0.003
    7EC       H   70   2.394   0.668  -0.038
    8EC       O   71   3.450   2.831   3.755
    8EC       C   72   3.516   2.817   3.654
    8EC       O   73   3.607   2.717   3.632
    8EC       C   74   3.678   2.750   3.516
    8EC       C   75   3.582   2.838   3.442
    8EC       O   76   3.510   2.902   3.546
    8EC       H   77   3.769   2.804   3.545
    8EC       H   78   3.706   2.662   3.459
    8EC       H   79   3.512   2.779   3.381
    8EC       H   80   3.631   2.912   3.378
    9EC       O   81   2.312   1.788   0.384
    9EC       C   82   2.311   1.764   0.503
    9EC       O   83   2.256   1.844   0.599
    9EC       C   84   2.298   1.795   0.723
    9EC       C   85   2.324   1.650   0.694
    9EC       O   86   2.368   1.652   0.559
    9EC       H   87   2.389   1.848   0.753
    9EC       H   88   2.222   1.808   0.800
    9EC       H   89   2.234   1.590   0.701
    9EC       H   90   2.402   1.607   0.759
   10EC       O   91   1.514   3.722   3.256
   10EC       C   92   1.455   3.616   3.270
   10EC       O   93   1.385   3.580   3.382
   10EC       C   94   1.354   3.443   3.368
   10EC       C   95   1.354   3.424   3.220
   10EC       O   96   1.451   3.517   3.175
   10EC       H   97   1.433   3.385   3.417
   10EC       H   98   1.258   3.419   3.413
   10EC       H   99   1.257   3.449   3.175
   10EC       H  100   1.382   3.322   3.190
   11EC       O  101   1.510   0.890   2.308
   11EC       C  102   1.509   0.901   2.429
   11EC       O  103   1.516   1.019   2.497
   11EC       C  104   1.536   0.988   2.632
   11EC       C  105   1.476   0.851   2.644
   11EC       O  106   1.500   0.795   2.515
   11EC       H  107   1.643   0.988   2.653
   11EC       H  108   1.487   1.060   2.698
   11EC       H  109   1.368   0.854   2.661
   11EC       H  110   1.523   0.790   2.721
   12EC       O  111   2.722   0.541  -0.177
   12EC       C  112   2.723   0.536  -0.055
   12EC       O  113   2.690   0.639   0.027
   12EC       C  114   2.727   0.601   0.158
   12EC       C  115   2.722   0.452   0.151
   12EC       O  116   2.758   0.424   0.017
   12EC       H  117   2.828   0.638   0.177
   12EC       H  118   2.659   0.642   0.232
   12EC       H  119   2.621   0.413   0.170
   12EC       H  120   2.791   0.403   0.221
   13EC       O  121   0.625   1.777   1.371
   13EC       C  122   0.692   1.757   1.471
   13EC       O  123   0.769   1.647   1.492
   13EC       C  124   0.810   1.651   1.627
   13EC       C  125   0.806   1.798   1.658
   13EC       O  126   0.700   1.844   1.576
   13EC       H  127   0.739   1.594   1.687
   13EC       H  128   0.910   1.609   1.639
   13EC       H  129   0.899   1.848   1.628
   13EC       H  130   0.786   1.818   1.763
   14EC       O  131   0.960   1.148   2.158
   14EC       C  132   1.044   1.197   2.084
   14EC       O  133   1.167   1.238   2.124
   14EC       C  134   1.222   1.310   2.016
   14EC       C  135   1.152   1.251   1.897
   14EC       O  136   1.024   1.217   1.950
   14EC       H  137   1.200   1.416   2.029
   14EC       H  138   1.331   1.296   2.010
   14EC       H  139   1.201   1.160   1.861
   14EC       H  140   1.142   1.322   1.814
   15EC       O  141   3.068   1.774   1.256
   15EC       C  142   3.163   1.743   1.326
   15EC       O  143   3.200   1.807   1.440
   15EC       C  144   3.326   1.757   1.477
   15EC       C  145   3.326   1.620   1.415
   15EC       O  146   3.247   1.638   1.299
   15EC       H  147   3.403   1.821   1.434
   15EC       H  148   3.338   1.753   1.585
   15EC       H  149   3.278   1.546   1.480
   15EC       H  150   3.426   1.585   1.389
   16EC       O  151   3.940   1.818   1.746
   16EC       C  152   3.873   1.863   1.838
   16EC       O  153   3.740   1.839   1.857
   16EC       C  154   3.697   1.927   1.957
   16EC       C  155   3.822   1.954   2.035
   16EC       O  156   3.923   1.945   1.936
   16EC       H  157   3.658   2.018   1.909
   16EC       H  158   3.619   1.882   2.019
   16EC       H  159   3.840   1.877   2.111
   16EC       H  160   3.823   2.053   2.082
   17EC       O  161   3.173   0.998   3.186
   17EC       C  162   3.186   0.933   3.288
   17EC       O  163   3.216   0.984   3.411
   17EC       C  164   3.246   0.876   3.495
   17EC       C  165   3.170   0.763   3.431
   17EC       O  166   3.173   0.796   3.293
   17EC       H  167   3.354   0.859   3.493
   17EC       H  168   3.214   0.894   3.597
   17EC       H  169   3.067   0.759   3.465
   17EC       H  170   3.217   0.665   3.448
   18EC       O  171   3.385   3.513   1.888
   18EC       C  172   3.435   3.486   1.780
   18EC       O  173   3.464   3.361   1.736
   18EC       C  174   3.542   3.375   1.621
   18EC       C  175   3.502   3.510   1.569
   18EC       O  176   3.472   3.581   1.688
   18EC       H  177   3.648   3.371   1.650
   18EC       H  178   3.522   3.296   1.548
   18EC       H  179   3.413   3.505   1.507
   18EC       H  180   3.582   3.560   1.514
   19EC       O  181   0.048   1.081   2.740
   19EC       C  182   0.142   1.113   2.669
   19EC       O  183   0.140   1.214   2.577
   19EC       C  184   0.257   1.202   2.501
   19EC       C  185   0.351   1.132   2.594
   19EC       O  186   0.264   1.050   2.671
   19EC       H  187   0.235   1.142   2.412
   19EC       H  188   0.295   1.299   2.470
   19EC       H  189   0.403   1.202   2.661
   19EC       H  190   0.425   1.070   2.542
   20EC       O  191   0.779   2.929   1.185
   20EC       C  192   0.708   2.859   1.256
   20EC       O  193   0.600   2.788   1.213
   20EC       C  194   0.533   2.742   1.328
   20EC       C  195   0.642   2.737   1.430
   20EC       O  196   0.728   2.843   1.391
   20EC       H  197   0.455   2.814   1.354
   20EC       H  198   0.488   2.644   1.311
   20EC       H  199   0.698   2.643   1.426
   20EC       H  200   0.606   2.752   1.532
   21EC       O  201   1.077   1.703   3.345
   21EC       C  202   1.084   1.694   3.466
   21EC       O  203   1.005   1.763   3.554
   21EC       C  204   1.060   1.743   3.682
   21EC       C  205   1.131   1.612   3.668
   21EC       O  206   1.172   1.612   3.532
   21EC       H  207   1.129   1.825   3.704
   21EC       H  208   0.982   1.740   3.759
   21EC       H  209   1.064   1.527   3.684
   21EC       H  210   1.217   1.602   3.734
   22EC       O  211   1.964   3.857   0.771
   22EC       C  212   1.912   3.838   0.663
   22EC       O  213   1.960   3.884   0.544
   22EC       C  214   1.859   3.861   0.448
   22EC       C  215   1.783   3.746   0.506
   22EC       O  216   1.796   3.767   0.646
   22EC       H  217   1.798   3.952   0.440
   22EC       H  218   1.901   3.838   0.350
   22EC       H  219   1.828   3.650   0.480
   22EC       H  220   1.677   3.746   0.477
   23EC       O  221   2.168   0.994   2.174
   23EC       C  222   2.053   1.017   2.211
   23EC       O  223   1.997   1.141   2.219
   23EC       C  224   1.876   1.126   2.288
   23EC       C  225   1.839   0.984   2.260
   23EC       O  226   1.965   0.920   2.250
   23EC       H  227   1.894   1.145   2.394
   23EC       H  228   1.800   1.196   2.251
   23EC       H  229   1.786   0.973   2.166
   23EC       H  230   1.779   0.939   2.341
   24EC       O  231   3.814   1.432   3.500
   24EC       C  232   3.773   1.431   3.385
   24EC       O  233   3.844   1.384   3.278
   24EC       C  234   3.773   1.423   3.163
   24EC       C  235   3.633   1.436   3.213
   24EC       O  236   3.650   1.478   3.347
   24EC       H  237   3.814   1.518   3.128
   24EC       H  238   3.782   1.349   3.083
   24EC       H  239   3.579   1.341   3.212
   24EC       H  240   3.574   1.510   3.157
   25EC       O  241   2.715   2.339   3.268
   25EC       C  242   2.704   2.315   3.149
   25EC       O  243   2.693   2.409   3.051
   25EC       C  244   2.657   2.342   2.933
   25EC       C  245   2.711   2.204   2.956
   25EC       O  246   2.699   2.188   3.097
   25EC       H  247   2.548   2.343   2.924
   25EC       H  248   2.701   2.389   2.845
   25EC       H  249   2.816   2.196   2.928
   25EC       H  250   2.654   2.126   2.904
   26EC       O  251   2.013   3.370   1.697
   26EC       C  252   2.011   3.248   1.700
   26EC       O  253   1.900   3.172   1.724
   26EC       C  254   1.944   3.040   1.744
   26EC       C  255   2.074   3.037   1.669
   26EC       O  256   2.122   3.170   1.682
   26EC       H  257   1.958   3.025   1.852
   26EC       H  258   1.872   2.968   1.706
   26EC       H  259   2.059   3.014   1.563
   26EC       H  260   2.145   2.965   1.711
   27EC       O  261   2.016   1.471   1.382
   27EC       C  262   2.114   1.398   1.379
   27EC       O  263   2.184   1.357   1.488
   27EC       C  264   2.302   1.297   1.441
   27EC       C  265   2.263   1.251   1.304
   27EC       O  266   2.168   1.348   1.263
   27EC       H  267   2.381   1.373   1.438
   27EC       H  268   2.334   1.214   1.505
   27EC       H  269   2.215   1.153   1.306
   27EC       H  270   2.348   1.248   1.234
   28EC       O  271   2.593   3.649   1.169
   28EC       C  272   2.508   3.707   1.234
   28EC       O  273   2.423   3.801   1.184
   28EC       C  274   2.358   3.861   1.293
   28EC       C  275   2.364   3.753   1.398
   28EC       O  276   2.486   3.687   1.367
   28EC       H  277   2.414   3.950   1.322
   28EC       H  278   2.256   3.889   1.269
   28EC       H  279   2.282   3.683   1.389
   28EC       H  280   2.366   3.793   1.500
   29EC       O  281   3.515   1.702   1.834
   29EC       C  282   3.464   1.806   1.792
   29EC       O  283   3.413   1.905   1.870
   29EC       C  284   3.344   1.992   1.785
   29EC       C  285   3.412   1.972   1.653
   29EC       O  286   3.452   1.835   1.659
   29EC       H  287   3.239   1.962   1.782
   29EC       H  288   3.351   2.096   1.819
   29EC       H  289   3.502   2.034   1.643
   29EC       H  290   3.346   1.989   1.568
   30EC       O  291   3.274   2.546   1.884
   30EC       C  292   3.248   2.527   1.766
   30EC       O  293   3.328   2.460   1.679
   30EC       C  294   3.276   2.482   1.550
   30EC       C  295   3.131   2.510   1.577
   30EC       O  296   3.135   2.573   1.705
   30EC       H  297   3.327   2.568   1.506
   30EC       H  298   3.290   2.395   1.486
   30EC       H  299   3.072   2.418   1.584
   30EC       H  300   3.086   2.576   1.503
   31EC       O  301   1.310   2.407   3.123
   31EC       C  302   1.304   2.416   3.244
   31EC       O  303   1.266   2.528   3.312
   31EC       C  304   1.296   2.506   3.448
   31EC       C  305   1.292   2.356   3.459
   31EC       O  306   1.336   2.314   3.330
   31EC       H  307   1.396   2.546   3.468
   31EC       H  308   1.223   2.554   3.513
   31EC       H  309   1.191   2.319   3.476
   31EC       H  310   1.359   2.318   3.537
   32EC       O  311   0.634   0.457   0.722
   32EC       C  312   0.613   0.562   0.783
   32EC       O  313   0.581   0.680   0.724
   32EC       C  314   0.590   0.779   0.824
   32EC       C  315   0.566   0.701   0.950
   32EC       O  316   0.620   0.574   0.919
   32EC       H  317   0.691   0.822   0.821
   32EC       H  318   0.517   0.858   0.809
   32EC       H  319   0.460   0.690   0.971
   32EC       H  320   0.616   0.744   1.037
   33EC       O  321   2.104   2.915   2.852
   33EC       C  322   2.207   2.864   2.893
   33EC       O  323   2.292   2.789   2.817
   33EC       C  324   2.383   2.729   2.906
   33EC       C  325   2.383   2.823   3.022
   33EC       O  326   2.251   2.874   3.022
   33EC       H  327   2.345   2.630   2.932
   33EC       H  328   2.482   2.719   2.861
   33EC       H  329   2.453   2.906   3.008
   33EC       H  330   2.406   2.773   3.117
   34EC       O  331   0.664   3.352   1.250
   34EC       C  332   0.688   3.338   1.132
   34EC       O  333   0.669   3.434   1.037
   34EC       C  334   0.684   3.372   0.912
   34EC       C  335   0.773   3.256   0.943
   34EC       O  336   0.736   3.223   1.076
   34EC       H  337   0.585   3.340   0.877
   34EC       H  338   0.728   3.439   0.838
   34EC       H  339   0.878   3.283   0.941
   34EC       H  340   0.756   3.170   0.876
   35EC       O  341   3.464   2.986   1.776
   35EC       C  342   3.554   2.904   1.777
   35EC       O  343   3.557   2.792   1.699
   35EC       C  344   3.663   2.713   1.747
   35EC       C  345   3.754   2.813   1.810
   35EC       O  346   3.665   2.912   1.857
   35EC       H  347   3.623   2.641   1.820
   35EC       H  348   3.712   2.658   1.666
   35EC       H  349   3.822   2.858   1.737
   35EC       H  350   3.813   2.772   1.893
   36EC       O  351   0.111   0.669   2.738
   36EC       C  352   0.133   0.663   2.858
   36EC       O  353   0.115   0.766   2.945
   36EC       C  354   0.174   0.727   3.067
   36EC       C  355   0.167   0.578   3.060
   36EC       O  356   0.179   0.551   2.921
   36EC       H  357   0.277   0.764   3.069
   36EC       H  358   0.120   0.768   3.152
   36EC       H  359   0.071   0.540   3.096
   36EC       H  360   0.248   0.529   3.116
   37EC       O  361   3.381   1.843   2.139
   37EC       C  362   3.317   1.794   2.230
   37EC       O  363   3.222   1.860   2.302
   37EC       C  364   3.189   1.777   2.411
   37EC       C  365   3.223   1.640   2.361
   37EC       O  366   3.332   1.665   2.273
   37EC       H  367   3.252   1.807   2.496
   37EC       H  368   3.084   1.786   2.439
   37EC       H  369   3.141   1.596   2.304
   37EC       H  370   3.253   1.572   2.441
   38EC       O  371   3.519   1.080   0.355
   38EC       C  372   3.615   1.068   0.429
   38EC       O  373   3.709   0.970   0.419
   38EC       C  374   3.787   0.976   0.536
   38EC       C  375   3.772   1.119   0.578
   38EC       O  376   3.641   1.151   0.534
   38EC       H  377   3.745   0.906   0.610
   38EC       H  378   3.891   0.950   0.517
   38EC       H  379   3.844   1.185   0.528
   38EC       H  380   3.781   1.133   0.687
   39EC       O  381   2.385   0.867   0.267
   39EC       C  382   2.305   0.875   0.175
   39EC       O  383   2.251   0.991   0.129
   39EC       C  384   2.147   0.955   0.041
   39EC       C  385   2.188   0.820  -0.006
   39EC       O  386   2.258   0.767   0.106
   39EC       H  387   2.053   0.953   0.098
   39EC       H  388   2.138   1.027  -0.041
   39EC       H  389   2.257   0.825  -0.091
   39EC       H  390   2.103   0.756  -0.033
   40EC       O  391   3.429   3.348   0.068
   40EC       C  392   3.381   3.358   0.179
   40EC       O  393   3.248   3.348   0.208
   40EC       C  394   3.232   3.389   0.342
   40EC       C  395   3.366   3.361   0.402
   40EC       O  396   3.455   3.381   0.292
   40EC       H  397   3.207   3.496   0.342
   40EC       H  398   3.152   3.333   0.391
   40EC       H  399   3.375   3.257   0.436
   40EC       H  400   3.391   3.428   0.484
   41EC       O  401   0.371   1.243   3.898
   41EC       C  402   0.350   1.204   3.784
   41EC       O  403   0.231   1.214   3.718
   41EC       C  404   0.243   1.137   3.601
   41EC       C  405   0.390   1.137   3.575
   41EC       O  406   0.445   1.143   3.706
   41EC       H  407   0.204   1.036   3.623
   41EC       H  408   0.186   1.180   3.519
   41EC       H  409   0.422   1.225   3.519
   41EC       H  410   0.424   1.046   3.524
   42EC       O  411   0.132   1.161   2.877
   42EC       C  412   0.247   1.152   2.916
   42EC       O  413   0.296   1.214   3.027
   42EC       C  414   0.436   1.198   3.024
   42EC       C  415   0.453   1.073   2.943
   42EC       O  416   0.344   1.078   2.854
   42EC       H  417   0.479   1.286   2.975
   42EC       H  418   0.477   1.189   3.125
   42EC       H  419   0.446   0.983   3.005
   42EC       H  420   0.548   1.071   2.888
   43EC       O  421   2.300   0.053   2.237
   43EC       C  422   2.307   0.055   2.115
   43EC       O  423   2.255  -0.039   2.032
   43EC       C  424   2.306  -0.012   1.904
   43EC       C  425   2.336   0.134   1.909
   43EC       O  426   2.371   0.155   2.045
   43EC       H  427   2.396  -0.072   1.889
   43EC       H  428   2.233  -0.037   1.826
   43EC       H  429   2.248   0.195   1.886
   43EC       H  430   2.418   0.164   1.843
   44EC       O  431   1.497   2.131   1.794
   44EC       C  432   1.502   2.128   1.916
   44EC       O  433   1.438   2.216   1.998
   44EC       C  434   1.488   2.193   2.128
   44EC       C  435   1.532   2.051   2.123
   44EC       O  436   1.573   2.035   1.987
   44EC       H  437   1.571   2.262   2.146
   44EC       H  438   1.411   2.210   2.204
   44EC       H  439   1.450   1.981   2.143
   44EC       H  440   1.615   2.029   2.191
   45EC       O  441   2.184   3.278   0.198
   45EC       C  442   2.196   3.231   0.310
   45EC       O  443   2.251   3.109   0.337
   45EC       C  444   2.223   3.082   0.472
   45EC       C  445   2.209   3.218   0.532
   45EC       O  446   2.155   3.294   0.424
   45EC       H  447   2.131   3.024   0.478
   45EC       H  448   2.304   3.025   0.519
   45EC       H  449   2.305   3.261   0.561
   45EC       H  450   2.141   3.220   0.618
   46EC       O  451   0.536   2.405   3.343
   46EC       C  452   0.566   2.322   3.427
   46EC       O  453   0.543   2.336   3.561
   46EC       C  454   0.613   2.233   3.625
   46EC       C  455   0.622   2.128   3.519
   46EC       O  456   0.628   2.204   3.399
   46EC       H  457   0.712   2.271   3.654
   46EC       H  458   0.561   2.197   3.714
   46EC       H  459   0.533   2.064   3.516
   46EC       H  460   0.711   2.064   3.529
   47EC       O  461   2.597   0.492   1.445
   47EC       C  462   2.542   0.518   1.340
   47EC       O  463   2.566   0.456   1.221
   47EC       C  464   2.502   0.530   1.121
   47EC       C  465   2.391   0.598   1.197
   47EC       O  466   2.447   0.616   1.326
   47EC       H  467   2.573   0.602   1.080
   47EC       H  468   2.464   0.467   1.041
   47EC       H  469   2.302   0.534   1.205
   47EC       H  470   2.362   0.694   1.153
   48EC       O  471   1.572   0.559   2.549
   48EC       C  472   1.510   0.454   2.534
   48EC       O  473   1.529   0.342   2.610
   48EC       C  474   1.459   0.238   2.546
   48EC       C  475   1.352   0.311   2.470
   48EC       O  476   1.415   0.434   2.438
   48EC       H  477   1.528   0.185   2.480
   48EC       H  478   1.417   0.168   2.618
   48EC       H  479   1.264   0.331   2.532
   48EC       H  480   1.321   0.259   2.379
   49EC       O  481   2.422   1.602   2.853
   49EC       C  482   2.418   1.723   2.836
   49EC       O  483   2.511   1.795   2.768
   49EC       C  484   2.484   1.931   2.793
   49EC       C  485   2.338   1.930   2.825
   49EC       O  486   2.319   1.803   2.886
   49EC       H  487   2.545   1.963   2.878
   49EC       H  488   2.507   1.993   2.706
   49EC       H  489   2.276   1.935   2.735
   49EC       H  490   2.309   2.011   2.893
   50EC       O  491   3.533   1.479   3.877
   50EC       C  492   3.431   1.496   3.812
   50EC       O  493   3.421   1.578   3.703
   50EC       C  494   3.284   1.588   3.673
   50EC       C  495   3.227   1.462   3.729
   50EC       O  496   3.311   1.436   3.840
   50EC       H  497   3.245   1.678   3.723
   50EC       H  498   3.267   1.597   3.565
   50EC       H  499   3.235   1.379   3.659
   50EC       H  500   3.123   1.472   3.761
   51EC       O  501   1.627   1.484   1.720
   51EC       C  502   1.677   1.468   1.830
   51EC       O  503   1.617   1.404   1.935
   51EC       C  504   1.697   1.428   2.048
   51EC       C  505   1.832   1.453   1.989
   51EC       O  506   1.802   1.513   1.864
   51EC       H  507   1.657   1.516   2.100
   51EC       H  508   1.696   1.343   2.116
   51EC       H  509   1.887   1.360   1.972
   51EC       H  510   1.894   1.520   2.051
   52EC       O  511   2.873   3.255   0.449
   52EC       C  512   2.789   3.320   0.389
   52EC       O  513   2.815   3.421   0.302
   52EC       C  514   2.693   3.485   0.275
   52EC       C  515   2.592   3.377   0.301
   52EC       O  516   2.654   3.301   0.404
   52EC       H  517   2.682   3.569   0.344
   52EC       H  518   2.688   3.521   0.172
   52EC       H  519   2.577   3.313   0.214
   52EC       H  520   2.496   3.416   0.335
   53EC       O  521   1.239   2.306   0.779
   53EC       C  522   1.266   2.191   0.806
   53EC       O  523   1.179   2.086   0.798
   53EC       C  524   1.240   1.977   0.861
   53EC       C  525   1.386   2.008   0.848
   53EC       O  526   1.389   2.150   0.852
   53EC       H  527   1.208   1.975   0.966
   53EC       H  528   1.214   1.882   0.814
   53EC       H  529   1.427   1.974   0.753
   53EC       H  530   1.446   1.966   0.930
   54EC       O  531   1.377   3.546   1.979
   54EC       C  532   1.369   3.527   2.099
   54EC       O  533   1.445   3.438   2.169
   54EC       C  534   1.389   3.429   2.298
   54EC       C  535   1.320   3.561   2.313
   54EC       O  536   1.281   3.593   2.181
   54EC       H  537   1.319   3.345   2.299
   54EC       H  538   1.465   3.413   2.374
   54EC       H  539   1.388   3.639   2.350
   54EC       H  540   1.233   3.556   2.379
   55EC       O  541   1.313   1.550   0.157
   55EC       C  542   1.334   1.445   0.215
   55EC       O  543   1.377   1.433   0.344
   55EC       C  544   1.411   1.298   0.363
   55EC       C  545   1.327   1.227   0.262
   55EC       O  546   1.317   1.322   0.157
   55EC       H  547   1.518   1.287   0.343
   55EC       H  548   1.390   1.266   0.465
   55EC       H  549   1.226   1.206   0.300
   55EC       H  550   1.372   1.134   0.226
   56EC       O  551   1.880   0.609   2.743
   56EC       C  552   1.962   0.648   2.662
   56EC       O  553   2.037   0.761   2.675
   56EC       C  554   2.100   0.784   2.551
   56EC       C  555   2.107   0.646   2.492
   56EC       O  556   1.991   0.583   2.544
   56EC       H  557   2.037   0.851   2.492
   56EC       H  558   2.198   0.828   2.564
   56EC       H  559   2.195   0.591   2.526
   56EC       H  560   2.105   0.646   2.383
   57EC       O  561   1.146   0.418   2.117
   57EC       C  562   1.256   0.415   2.065
   57EC       O  563   1.367   0.358   2.120
   57EC       C  564   1.477   0.398   2.042
   57EC       C  565   1.414   0.425   1.909
   57EC       O  566   1.284   0.471   1.943
   57EC       H  567   1.520   0.488   2.087
   57EC       H  568   1.553   0.320   2.037
   57EC       H  569   1.405   0.335   1.848
   57EC       H  570   1.468   0.501   1.852
   58EC       O  571   0.156   2.798   3.445
   58EC       C  572   0.145   2.730   3.345
   58EC       O  573   0.237   2.723   3.244
   58EC       C  574   0.176   2.655   3.138
   58EC       C  575   0.073   2.572   3.206
   58EC       O  576   0.036   2.652   3.318
   58EC       H  577   0.132   2.730   3.070
   58EC       H  578   0.248   2.595   3.082
   58EC       H  579   0.113   2.477   3.242
   58EC       H  580  -0.015   2.552   3.143
   59EC       O  581   3.695  -0.145   1.679
   59EC       C  582   3.655  -0.042   1.729
   59EC       O  583   3.541  -0.030   1.804
   59EC       C  584   3.518   0.108   1.821
   59EC       C  585   3.655   0.167   1.807
   59EC       O  586   3.719   0.079   1.716
   59EC       H  587   3.450   0.142   1.741
   59EC       H  588   3.473   0.130   1.918
   59EC       H  589   3.710   0.166   1.902
   59EC       H  590   3.654   0.269   1.768
   60EC       O  591   0.710   3.719   3.175
   60EC       C  592   0.592   3.689   3.184
   60EC       O  593   0.488   3.766   3.140
   60EC       C  594   0.370   3.708   3.190
   60EC       C  595   0.409   3.564   3.208
   60EC       O  596   0.547   3.572   3.240
   60EC       H  597   0.345   3.756   3.286
   60EC       H  598   0.287   3.720   3.121
   60EC       H  599   0.396   3.507   3.115
   60EC       H  600   0.353   3.515   3.288
   61EC       O  601   3.101   3.041   3.206
   61EC       C  602   3.084   3.011   3.323
   61EC       O  603   2.967   3.027   3.391
   61EC       C  604   2.997   3.004   3.527
   61EC       C  605   3.117   2.915   3.521
   61EC       O  606   3.182   2.958   3.402
   61EC       H  607   3.019   3.101   3.574
   61EC       H  608   2.913   2.957   3.579
   61EC       H  609   3.089   2.810   3.510
   61EC       H  610   3.183   2.926   3.608
   62EC       O  611   1.560   2.461   1.705
   62EC       C  612   1.486   2.486   1.799
   62EC       O  613   1.495   2.598   1.877
   62EC       C  614   1.410   2.577   1.987
   62EC       C  615   1.310   2.480   1.935
   62EC       O  616   1.385   2.404   1.841
   62EC       H  617   1.470   2.536   2.069
   62EC       H  618   1.364   2.670   2.020
   62EC       H  619   1.228   2.529   1.882
   62EC       H  620   1.269   2.414   2.013
   63EC       O  621   1.950   0.400   3.364
   63EC       C  622   2.003   0.510   3.365
   63EC       O  623   2.080   0.558   3.467
   63EC       C  624   2.102   0.694   3.441
   63EC       C  625   2.088   0.702   3.292
   63EC       O  626   1.993   0.601   3.264
   63EC       H  627   2.025   0.752   3.493
   63EC       H  628   2.201   0.726   3.475
   63EC       H  629   2.182   0.678   3.241
   63EC       H  630   2.053   0.800   3.258
   64EC       O  631   0.535   2.977   1.174
   64EC       C  632   0.488   2.973   1.061
   64EC       O  633   0.389   3.055   1.015
   64EC       C  634   0.348   3.003   0.891
   64EC       C  635   0.469   2.929   0.844
   64EC       O  636   0.528   2.884   0.965
   64EC       H  637   0.262   2.937   0.908
   64EC       H  638   0.318   3.082   0.822
   64EC       H  639   0.539   2.994   0.791
   64EC       H  640   0.444   2.844   0.779
   65EC       O  641   0.794   1.643   3.665
   65EC       C  642   0.719   1.555   3.702
   65EC       O  643   0.698   1.438   3.635
   65EC       C  644   0.587   1.375   3.696
   65EC       C  645   0.590   1.431   3.835
   65EC       O  646   0.644   1.561   3.816
   65EC       H  647   0.497   1.404   3.641
   65EC       H  648   0.597   1.267   3.695
   65EC       H  649   0.657   1.375   3.900
   65EC       H  650   0.491   1.436   3.881
   66EC       O  651   3.189   2.868   2.480
   66EC       C  652   3.200   2.773   2.404
   66EC       O  653   3.307   2.751   2.323
   66EC       C  654   3.271   2.648   2.235
   66EC       C  655   3.166   2.574   2.312
   66EC       O  656   3.105   2.676   2.389
   66EC       H  657   3.231   2.693   2.143
   66EC       H  658   3.356   2.585   2.210
   66EC       H  659   3.210   2.499   2.380
   66EC       H  660   3.093   2.524   2.248
   67EC       O  661   3.110   3.112   0.438
   67EC       C  662   3.089   3.141   0.555
   67EC       O  663   3.065   3.268   0.599
   67EC       C  664   3.070   3.263   0.740
   67EC       C  665   3.034   3.121   0.769
   67EC       O  666   3.086   3.051   0.657
   67EC       H  667   3.172   3.288   0.772
   67EC       H  668   3.000   3.333   0.785
   67EC       H  669   2.926   3.106   0.774
   67EC       H  670   3.079   3.084   0.862
   68EC       O  671   0.350   2.485   2.826
   68EC       C  672   0.342   2.481   2.704
   68EC       O  673   0.446   2.499   2.619
   68EC       C  674   0.392   2.511   2.490
   68EC       C  675   0.262   2.437   2.501
   68EC       O  676   0.225   2.459   2.636
   68EC       H  677   0.377   2.618   2.469
   68EC       H  678   0.457   2.468   2.414
   68EC       H  679   0.274   2.330   2.484
   68EC       H  680   0.185   2.476   2.433
   69EC       O  681   1.860   2.462   2.332
   69EC       C  682   1.832   2.469   2.213
   69EC       O  683   1.706   2.460   2.163
   69EC       C  684   1.718   2.449   2.023
   69EC       C  685   1.850   2.515   1.996
   69EC       O  686   1.924   2.488   2.114
   69EC       H  687   1.720   2.342   1.997
   69EC       H  688   1.636   2.497   1.971
   69EC       H  689   1.839   2.624   1.985
   69EC       H  690   1.900   2.475   1.908
   70EC       O  691   3.492   1.878   0.396
   70EC       C  692   3.574   1.896   0.485
   70EC       O  693   3.551   1.969   0.598
   70EC       C  694   3.675   1.987   0.660
   70EC       C  695   3.754   1.870   0.612
   70EC       O  696   3.701   1.847   0.482
   70EC       H  697   3.718   2.082   0.627
   70EC       H  698   3.666   1.989   0.769
   70EC       H  699   3.737   1.781   0.673
   70EC       H  700   3.862   1.890   0.607
   71EC       O  701   1.561   2.486  -0.035
   71EC       C  702   1.576   2.497   0.085
   71EC       O  703   1.574   2.394   0.174
   71EC       C  704   1.570   2.451   0.303
   71EC       C  705   1.634   2.584   0.282
   71EC       O  706   1.597   2.617   0.149
   71EC       H  707   1.465   2.459   0.334
   71EC       H  708   1.624   2.390   0.375
   71EC       H  709   1.743   2.579   0.288
   71EC       H  710   1.598   2.661   0.352
   72EC       O  711   1.677   3.654   2.416
   72EC       C  712   1.693   3.676   2.297
   72EC       O  713   1.799   3.632   2.224
   72EC       C  714   1.793   3.698   2.100
   72EC       C  715   1.648   3.731   2.086
   72EC       O  716   1.607   3.750   2.221
   72EC       H  717   1.855   3.788   2.106
   72EC       H  718   1.829   3.635   2.019
   72EC       H  719   1.591   3.648   2.043
   72EC       H  720   1.629   3.821   2.027
   73EC       O  721   0.857   2.989   2.502
   73EC       C  722   0.812   3.036   2.398
   73EC       O  723   0.781   3.167   2.379
   73EC       C  724   0.711   3.175   2.258
   73EC       C  725   0.760   3.055   2.183
   73EC       O  726   0.786   2.962   2.286
   73EC       H  727   0.604   3.169   2.279
   73EC       H  728   0.732   3.268   2.205
   73EC       H  729   0.853   3.076   2.129
   73EC       H  730   0.686   3.016   2.112
   74EC       O  731   3.386   2.339   3.750
   74EC       C  732   3.422   2.398   3.649
   74EC       O  733   3.548   2.396   3.598
   74EC       C  734   3.554   2.495   3.498
   74EC       C  735   3.411   2.506   3.454
   74EC       O  736   3.339   2.477   3.573
   74EC       H  737   3.591   2.587   3.543
   74EC       H  738   3.620   2.465   3.416
   74EC       H  739   3.385   2.432   3.378
   74EC       H  740   3.386   2.606   3.417
   75EC       O  741   0.706   0.857   2.022
   75EC       C  742   0.692   0.877   1.902
   75EC       O  743   0.675   1.000   1.846
   75EC       C  744   0.638   0.979   1.712
   75EC       C  745   0.698   0.845   1.682
   75EC       O  746   0.692   0.779   1.807
   75EC       H  747   0.529   0.978   1.705
   75EC       H  748   0.678   1.057   1.646
   75EC       H  749   0.803   0.852   1.651
   75EC       H  750   0.643   0.789   1.606
   76EC       O  751   2.691   2.396   1.662
   76EC       C  752   2.692   2.294   1.730
   76EC       O  753   2.789   2.198   1.724
   76EC       C  754   2.741   2.088   1.798
   76EC       C  755   2.646   2.152   1.894
   76EC       O  756   2.595   2.262   1.821
   76EC       H  757   2.691   2.019   1.729
   76EC       H  758   2.823   2.036   1.849
   76EC       H  759   2.697   2.189   1.984
   76EC       H  760   2.565   2.084   1.924
   77EC       O  761   3.005   3.080   2.269
   77EC       C  762   3.026   3.125   2.157
   77EC       O  763   2.997   3.252   2.118
   77EC       C  764   3.014   3.256   1.978
   77EC       C  765   3.112   3.146   1.953
   77EC       O  766   3.082   3.052   2.055
   77EC       H  767   2.917   3.236   1.931
   77EC       H  768   3.051   3.353   1.945
   77EC       H  769   3.215   3.180   1.965
   77EC       H  770   3.101   3.100   1.854
   78EC       O  771   1.293   0.413   0.995
   78EC       C  772   1.307   0.375   1.110
   78EC       O  773   1.316   0.245   1.149
   78EC       C  774   1.306   0.243   1.289
   78EC       C  775   1.354   0.379   1.328
   78EC       O  776   1.313   0.460   1.218
   78EC       H  777   1.201   0.227   1.316
   78EC       H  778   1.366   0.164   1.333
   78EC       H  779   1.463   0.383   1.337
   78EC       H  780   1.309   0.415   1.421
   79EC       O  781   2.105   1.949   3.259
   79EC       C  782   2.034   1.992   3.349
   79EC       O  783   1.999   1.921   3.461
   79EC       C  784   1.899   1.996   3.526
   79EC       C  785   1.927   2.136   3.481
   79EC       O  786   1.980   2.117   3.350
   79EC       H  787   1.802   1.960   3.492
   79EC       H  788   1.906   1.985   3.634
   79EC       H  789   2.003   2.185   3.543
   79EC       H  790   1.837   2.198   3.478
   80EC       O  791   1.094   1.333   0.579
   80EC       C  792   1.164   1.408   0.645
   80EC       O  793   1.118   1.497   0.738
   80EC       C  794   1.226   1.580   0.772
   80EC       C  795   1.345   1.494   0.743
   80EC       O  796   1.300   1.415   0.634
   80EC       H  797   1.223   1.669   0.708
   80EC       H  798   1.222   1.611   0.877
   80EC       H  799   1.370   1.429   0.827
   80EC       H  800   1.434   1.552   0.715
   81EC       O  801   2.322   2.203   0.558
   81EC       C  802   2.303   2.179   0.677
   81EC       O  803   2.357   2.249   0.780
   81EC       C  804   2.332   2.176   0.897
   81EC       C  805   2.209   2.098   0.861
   81EC       O  806   2.225   2.076   0.722
   81EC       H  807   2.418   2.111   0.917
   81EC       H  808   2.316   2.241   0.983
   81EC       H  809   2.118   2.155   0.878
   81EC       H  810   2.202   2.002   0.914
   82EC       O  811   2.063   1.778   3.281
   82EC       C  812   2.035   1.695   3.196
   82EC       O  813   2.122   1.644   3.105
   82EC       C  814   2.045   1.572   3.011
   82EC       C  815   1.924   1.534   3.089
   82EC       O  816   1.909   1.643   3.180
   82EC       H  817   2.022   1.639   2.927
   82EC       H  818   2.099   1.485   2.973
   82EC       H  819   1.938   1.442   3.146
   82EC       H  820   1.834   1.524   3.027
   83EC       O  821   2.257   3.407   3.067
   83EC       C  822   2.329   3.360   3.155
   83EC       O  823   2.366   3.427   3.268
   83EC       C  824   2.466   3.349   3.329
   83EC       C  825   2.437   3.211   3.280
   83EC       O  826   2.382   3.234   3.151
   83EC       H  827   2.564   3.386   3.295
   83EC       H  828   2.461   3.356   3.438
   83EC       H  829   2.362   3.161   3.341
   83EC       H  830   2.526   3.148   3.273
   84EC       O  831   1.008   1.369   1.241
   84EC       C  832   0.982   1.389   1.124
   84EC       O  833   0.869   1.452   1.078
   84EC       C  834   0.865   1.432   0.939
   84EC       C  835   1.009   1.412   0.904
   84EC       O  836   1.062   1.349   1.020
   84EC       H  837   0.804   1.343   0.919
   84EC       H  838   0.822   1.518   0.888
   84EC       H  839   1.061   1.507   0.888
   84EC       H  840   1.023   1.348   0.816
   85EC       O  841   3.303   3.540   0.586
   85EC       C  842   3.269   3.641   0.645
   85EC       O  843   3.346   3.707   0.737
   85EC       C  844   3.263   3.802   0.798
   85EC       C  845   3.158   3.827   0.695
   85EC       O  846   3.148   3.702   0.629
   85EC       H  847   3.221   3.758   0.890
   85EC       H  848   3.318   3.893   0.824
   85EC       H  849   3.189   3.903   0.622
   85EC       H  850   3.061   3.857   0.738
   86EC       O  851   1.493   3.017   1.039
   86EC       C  852   1.386   3.069   1.009
   86EC       O  853   1.372   3.195   0.959
   86EC       C  854   1.235   3.224   0.961
   86EC       C  855   1.172   3.089   0.954
   86EC       O  856   1.265   3.007   1.022
   86EC       H  857   1.212   3.276   1.055
   86EC       H  858   1.206   3.288   0.877
   86EC       H  859   1.162   3.054   0.851
   86EC       H  860   1.074   3.085   1.002
   87EC       O  861   0.664   0.845   2.466
   87EC       C  862   0.575   0.761   2.460
   87EC       O  863   0.458   0.776   2.392
   87EC       C  864   0.375   0.670   2.431
   87EC       C  865   0.473   0.564   2.471
   87EC       O  866   0.582   0.639   2.522
   87EC       H  867   0.313   0.702   2.515
   87EC       H  868   0.311   0.637   2.349
   87EC       H  869   0.507   0.505   2.385
   87EC       H  870   0.434   0.496   2.547
   88EC       O  871   2.953   3.463   2.882
   88EC       C  872   3.075   3.454   2.889
   88EC       O  873   3.156   3.415   2.787
   88EC       C  874   3.284   3.394   2.842
   88EC       C  875   3.283   3.484   2.962
   88EC       O  876   3.147   3.482   3.002
   88EC       H  877   3.293   3.289   2.869
   88EC       H  878   3.362   3.421   2.771
   88EC       H  879   3.311   3.586   2.937
   88EC       H  880   3.347   3.447   3.043
   89EC       O  881   0.467   3.475   0.959
   89EC       C  882   0.444   3.580   1.017
   89EC       O  883   0.440   3.594   1.153
   89EC       C  884   0.387   3.722   1.179
   89EC       C  885   0.423   3.798   1.055
   89EC       O  886   0.420   3.699   0.954
   89EC       H  887   0.279   3.713   1.192
   89EC       H  888   0.431   3.766   1.269
   89EC       H  889   0.524   3.840   1.061
   89EC       H  890   0.353   3.879   1.033
   90EC       O  891   2.321   2.659   0.206
   90EC       C  892   2.304   2.657   0.327
   90EC       O  893   2.183   2.670   0.389
   90EC       C  894   2.209   2.688   0.526
   90EC       C  895   2.342   2.621   0.544
   90EC       O  896   2.405   2.642   0.418
   90EC       H  897   2.214   2.795   0.547
   90EC       H  898   2.131   2.643   0.587
   90EC       H  899   2.331   2.513   0.560
   90EC       H  900   2.401   2.664   0.625
   91EC       O  901   1.016   0.064   0.831
   91EC       C  902   1.046   0.091   0.716
   91EC       O  903   0.970   0.061   0.607
   91EC       C  904   1.050   0.085   0.493
   91EC       C  905   1.148   0.187   0.542
   91EC       O  906   1.163   0.153   0.680
   91EC       H  907   1.099  -0.009   0.465
   91EC       H  908   0.990   0.122   0.409
   91EC       H  909   1.108   0.289   0.535
   91EC       H  910   1.244   0.182   0.491
   92EC       O  911   0.513   2.654   2.328
   92EC       C  912   0.525   2.669   2.208
   92EC       O  913   0.614   2.600   2.130
   92EC       C  914   0.614   2.663   2.004
   92EC       C  915   0.479   2.726   1.998
   92EC       O  916   0.452   2.757   2.134
   92EC       H  917   0.695   2.737   2.003
   92EC       H  918   0.630   2.591   1.924
   92EC       H  919   0.402   2.657   1.962
   92EC       H  920   0.477   2.817   1.936
   93EC       O  921   2.865   3.634   4.021
   93EC       C  922   2.904   3.646   3.906
   93EC       O  923   2.845   3.588   3.798
   93EC       C  924   2.932   3.607   3.689
   93EC       C  925   3.009   3.729   3.728
   93EC       O  926   3.013   3.720   3.870
   93EC       H  927   2.997   3.518   3.681
   93EC       H  928   2.878   3.620   3.595
   93EC       H  929   2.957   3.821   3.700
   93EC       H  930   3.110   3.731   3.686
   94EC       O  931   1.363   3.580   1.053
   94EC       C  932   1.339   3.569   0.934
   94EC       O  933   1.319   3.672   0.848
   94EC       C  934   1.271   3.617   0.728
   94EC       C  935   1.325   3.478   0.731
   94EC       O  936   1.328   3.448   0.870
   94EC       H  937   1.161   3.619   0.730
   94EC       H  938   1.306   3.673   0.641
   94EC       H  939   1.427   3.472   0.691
   94EC       H  940   1.262   3.406   0.677
   95EC       O  941   3.195   0.113   1.509
   95EC       C  942   3.239   0.083   1.399
   95EC       O  943   3.230  -0.040   1.342
   95EC       C  944   3.312  -0.039   1.228
   95EC       C  945   3.315   0.106   1.191
   95EC       O  946   3.304   0.171   1.317
   95EC       H  947   3.411  -0.076   1.257
   95EC       H  948   3.271  -0.101   1.148
   95EC       H  949   3.230   0.135   1.129
   95EC       H  950   3.408   0.136   1.141
   96EC       O  951   0.419   2.001   1.518
   96EC       C  952   0.396   2.099   1.448
   96EC       O  953   0.389   2.227   1.493
   96EC       C  954   0.337   2.305   1.389
   96EC       C  955   0.375   2.226   1.267
   96EC       O  956   0.373   2.092   1.313
   96EC       H  957   0.228   2.311   1.401
   96EC       H  958   0.379   2.405   1.388
   96EC       H  959   0.476   2.250   1.233
   96EC       H  960   0.305   2.240   1.184
   97EC       O  961   3.432   3.335   2.381
   97EC       C  962   3.323   3.389   2.370
   97EC       O  963   3.211   3.329   2.323
   97EC       C  964   3.115   3.431   2.303
   97EC       C  965   3.159   3.536   2.400
   97EC       O  966   3.300   3.520   2.404
   97EC       H  967   3.122   3.465   2.199
   97EC       H  968   3.014   3.395   2.323
   97EC       H  969   3.119   3.519   2.500
   97EC       H  970   3.132   3.638   2.368
   98EC       O  971   2.813   0.401   2.321
   98EC       C  972   2.699   0.428   2.288
   98EC       O  973   2.592   0.430   2.372
   98EC       C  974   2.477   0.440   2.292
   98EC       C  975   2.529   0.506   2.168
   98EC       O  976   2.662   0.458   2.159
   98EC       H  977   2.439   0.339   2.272
   98EC       H  978   2.399   0.499   2.340
   98EC       H  979   2.531   0.615   2.177
   98EC       H  980   2.472   0.479   2.078
   99EC       O  981   1.848   1.301   1.197
   99EC       C  982   1.733   1.310   1.159
   99EC       O  983   1.641   1.209   1.162
   99EC       C  984   1.530   1.252   1.087
   99EC       C  985   1.539   1.401   1.098
   99EC       O  986   1.679   1.425   1.106
   99EC       H  987   1.542   1.217   0.984
   99EC       H  988   1.437   1.213   1.128
   99EC       H  989   1.491   1.439   1.189
   99EC       H  990   1.496   1.453   1.011
  100EC       O  991   2.773   2.303   2.709
  100EC       C  992   2.785   2.238   2.607
  100EC       O  993   2.699   2.140   2.567
  100EC       C  994   2.760   2.074   2.459
  100EC       C  995   2.851   2.178   2.403
  100EC       O  996   2.888   2.253   2.518
  100EC       H  997   2.814   1.987   2.498
  100EC       H  998   2.686   2.040   2.386
  100EC       H  999   2.801   2.244   2.332
  100EC       H 1000   2.940   2.136   2.355
  101EC       O 1001   1.606   0.676   1.610
  101EC       C 1002   1.617   0.670   1.489
  101EC       O 1003   1.717   0.728   1.417
  101EC       C 1004   1.680   0.719   1.282
  101EC       C 1005   1.590   0.599   1.280
  101EC       O 1006   1.529   0.604   1.408
  101EC       H 1007   1.628   0.811   1.253
  101EC       H 1008   1.767   0.706   1.217
  101EC       H 1009   1.646   0.506   1.270
  101EC       H 1010   1.515   0.604   1.201
  102EC       O 1011   1.645   2.228   2.886
  102EC       C 1012   1.621   2.329   2.949
  102EC       O 1013   1.712   2.426   2.979
  102EC       C 1014   1.652   2.511   3.073
  102EC       C 1015   1.506   2.494   3.045
  102EC       O 1016   1.498   2.359   3.001
  102EC       H 1017   1.679   2.477   3.174
  102EC       H 1018   1.685   2.614   3.060
  102EC       H 1019   1.472   2.560   2.964
  102EC       H 1020   1.443   2.510   3.133
  103EC       O 1021   0.948   1.371   3.035
  103EC       C 1022   0.885   1.287   3.097
  103EC       O 1023   0.920   1.237   3.218
  103EC       C 1024   0.836   1.127   3.243
  103EC       C 1025   0.715   1.157   3.161
  103EC       O 1026   0.769   1.230   3.051
  103EC       H 1027   0.888   1.036   3.209
  103EC       H 1028   0.813   1.117   3.349
  103EC       H 1029   0.645   1.221   3.214
  103EC       H 1030   0.663   1.068   3.126
  104EC       O 1031   3.046   0.868   0.323
  104EC       C 1032   3.090   0.897   0.213
  104EC       O 1033   3.082   1.021   0.156
  104EC       C 1034   3.121   1.007   0.022
  104EC       C 1035   3.209   0.887   0.025
  104EC       O 1036   3.153   0.809   0.129
  104EC       H 1037   3.031   0.992  -0.039
  104EC       H 1038   3.173   1.096  -0.014
  104EC       H 1039   3.312   0.912   0.051
  104EC       H 1040   3.209   0.831  -0.070
  105EC       O 1041   2.615   1.220   0.389
  105EC       C 1042   2.576   1.179   0.498
  105EC       O 1043   2.456   1.119   0.520
  105EC       C 1044   2.440   1.109   0.659
  105EC       C 1045   2.581   1.108   0.709
  105EC       O 1046   2.649   1.189   0.613
  105EC       H 1047   2.384   1.197   0.694
  105EC       H 1048   2.386   1.019   0.687
  105EC       H 1049   2.625   1.008   0.708
  105EC       H 1050   2.592   1.151   0.809
  106EC       O 1051   0.114   0.293   1.458
  106EC       C 1052   0.124   0.410   1.422
  106EC       O 1053   0.126   0.451   1.293
  106EC       C 1054   0.163   0.587   1.294
  106EC       C 1055   0.120   0.632   1.430
  106EC       O 1056   0.136   0.515   1.509
  106EC       H 1057   0.272   0.593   1.281
  106EC       H 1058   0.114   0.643   1.214
  106EC       H 1059   0.015   0.662   1.432
  106EC       H 1060   0.181   0.714   1.469
  107EC       O 1061   1.229   1.757   2.769
  107EC       C 1062   1.186   1.797   2.876
  107EC       O 1063   1.261   1.860   2.971
  107EC       C 1064   1.181   1.868   3.087
  107EC       C 1065   1.042   1.864   3.033
  107EC       O 1066   1.056   1.784   2.916
  107EC       H 1067   1.204   1.781   3.150
  107EC       H 1068   1.201   1.959   3.144
  107EC       H 1069   1.007   1.963   3.003
  107EC       H 1070   0.970   1.820   3.102
  108EC       O 1071   2.890   1.067   0.890
  108EC       C 1072   2.991   1.114   0.842
  108EC       O 1073   3.118   1.071   0.869
  108EC       C 1074   3.206   1.165   0.814
  108EC       C 1075   3.125   1.226   0.704
  108EC       O 1076   2.992   1.219   0.754
  108EC       H 1077   3.231   1.238   0.892
  108EC       H 1078   3.297   1.119   0.778
  108EC       H 1079   3.132   1.168   0.612
  108EC       H 1080   3.153   1.330   0.683
  109EC       O 1081   2.905   3.117   2.859
  109EC       C 1082   2.816   3.170   2.795
  109EC       O 1083   2.803   3.304   2.773
  109EC       C 1084   2.676   3.325   2.717
  109EC       C 1085   2.647   3.194   2.652
  109EC       O 1086   2.713   3.101   2.736
  109EC       H 1087   2.606   3.348   2.798
  109EC       H 1088   2.677   3.408   2.646
  109EC       H 1089   2.689   3.188   2.551
  109EC       H 1090   2.540   3.171   2.647
  110EC       O 1091   0.636   2.358   1.097
  110EC       C 1092   0.626   2.236   1.091
  110EC       O 1093   0.693   2.148   1.170
  110EC       C 1094   0.673   2.020   1.116
  110EC       C 1095   0.542   2.035   1.045
  110EC       O 1096   0.544   2.171   1.003
  110EC       H 1097   0.755   1.998   1.048
  110EC       H 1098   0.669   1.944   1.194
  110EC       H 1099   0.457   2.020   1.111
  110EC       H 1100   0.533   1.968   0.959
  111EC       O 1101   2.777   2.696   0.248
  111EC       C 1102   2.871   2.767   0.277
  111EC       O 1103   2.878   2.901   0.255
  111EC       C 1104   3.010   2.941   0.279
  111EC       C 1105   3.059   2.837   0.375
  111EC       O 1106   2.986   2.721   0.336
  111EC       H 1107   3.065   2.939   0.184
  111EC       H 1108   3.015   3.041   0.321
  111EC       H 1109   3.034   2.861   0.478
  111EC       H 1110   3.167   2.819   0.367
  112EC       O 1111   1.753   3.264   1.770
  112EC       C 1112   1.817   3.262   1.874
  112EC       O 1113   1.901   3.162   1.912
  112EC       C 1114   1.935   3.185   2.046
  112EC       C 1115   1.917   3.333   2.060
  112EC       O 1116   1.812   3.361   1.968
  112EC       H 1117   1.865   3.129   2.110
  112EC       H 1118   2.037   3.154   2.068
  112EC       H 1119   2.006   3.388   2.029
  112EC       H 1120   1.890   3.364   2.161
  113EC       O 1121   3.728   3.627   3.292
  113EC       C 1122   3.718   3.609   3.412
  113EC       O 1123   3.786   3.514   3.483
  113EC       C 1124   3.729   3.509   3.611
  113EC       C 1125   3.670   3.645   3.627
  113EC       O 1126   3.634   3.680   3.494
  113EC       H 1127   3.652   3.430   3.611
  113EC       H 1128   3.803   3.486   3.687
  113EC       H 1129   3.743   3.717   3.664
  113EC       H 1130   3.582   3.647   3.692
  114EC       O 1131   3.221   3.116   2.774
  114EC       C 1132   3.241   2.996   2.785
  114EC       O 1133   3.157   2.898   2.741
  114EC       C 1134   3.204   2.777   2.794
  114EC       C 1135   3.350   2.804   2.815
  114EC       O 1136   3.353   2.943   2.844
  114EC       H 1137   3.152   2.758   2.889
  114EC       H 1138   3.186   2.694   2.726
  114EC       H 1139   3.408   2.786   2.724
  114EC       H 1140   3.393   2.746   2.897
  115EC       O 1141   0.410   1.266   1.788
  115EC       C 1142   0.423   1.319   1.679
  115EC       O 1143   0.500   1.270   1.578
  115EC       C 1144   0.507   1.371   1.479
  115EC       C 1145   0.380   1.447   1.502
  115EC       O 1146   0.360   1.435   1.642
  115EC       H 1147   0.596   1.431   1.498
  115EC       H 1148   0.512   1.328   1.379
  115EC       H 1149   0.295   1.403   1.450
  115EC       H 1150   0.389   1.553   1.474
  116EC       O 1151   1.101   0.468   0.489
  116EC       C 1152   1.052   0.528   0.584
  116EC       O 1153   0.927   0.582   0.585
  116EC       C 1154   0.918   0.663   0.700
  116EC       C 1155   1.020   0.601   0.791
  116EC       O 1156   1.117   0.551   0.701
  116EC       H 1157   0.945   0.765   0.672
  116EC       H 1158   0.818   0.662   0.743
  116EC       H 1159   0.978   0.517   0.848
  116EC       H 1160   1.064   0.673   0.861
  117EC       O 1161   3.646   2.194   0.166
  117EC       C 1162   3.555   2.265   0.204
  117EC       O 1163   3.429   2.223   0.233
  117EC       C 1164   3.349   2.337   0.250
  117EC       C 1165   3.449   2.441   0.290
  117EC       O 1166   3.567   2.401   0.222
  117EC       H 1167   3.302   2.361   0.153
  117EC       H 1168   3.272   2.323   0.325
  117EC       H 1169   3.468   2.440   0.398
  117EC       H 1170   3.420   2.543   0.260
  118EC       O 1171   2.868   1.961   0.384
  118EC       C 1172   2.851   1.877   0.298
  118EC       O 1173   2.949   1.804   0.239
  118EC       C 1174   2.892   1.738   0.129
  118EC       C 1175   2.748   1.728   0.168
  118EC       O 1176   2.728   1.845   0.246
  118EC       H 1177   2.907   1.799   0.040
  118EC       H 1178   2.937   1.640   0.113
  118EC       H 1179   2.727   1.640   0.230
  118EC       H 1180   2.680   1.727   0.081
  119EC       O 1181  -0.088   3.625   0.827
  119EC       C 1182  -0.035   3.581   0.726
  119EC       O 1183   0.011   3.657   0.623
  119EC       C 1184   0.040   3.569   0.518
  119EC       C 1185   0.068   3.440   0.588
  119EC       O 1186  -0.017   3.448   0.702
  119EC       H 1187  -0.047   3.563   0.452
  119EC       H 1188   0.126   3.604   0.460
  119EC       H 1189   0.171   3.433   0.622
  119EC       H 1190   0.043   3.352   0.528
  120EC       O 1191   3.795   3.186   0.936
  120EC       C 1192   3.780   3.217   1.054
  120EC       O 1193   3.809   3.136   1.159
  120EC       C 1194   3.755   3.197   1.274
  120EC       C 1195   3.751   3.342   1.236
  120EC       O 1196   3.730   3.337   1.095
  120EC       H 1197   3.655   3.156   1.291
  120EC       H 1198   3.817   3.179   1.362
  120EC       H 1199   3.847   3.392   1.255
  120EC       H 1200   3.671   3.397   1.285
  121EC       O 1201   0.530   1.042   1.073
  121EC       C 1202   0.500   1.049   0.955
  121EC       O 1203   0.373   1.034   0.906
  121EC       C 1204   0.384   1.024   0.766
  121EC       C 1205   0.512   1.097   0.737
  121EC       O 1206   0.590   1.071   0.854
  121EC       H 1207   0.389   0.918   0.739
  121EC       H 1208   0.299   1.070   0.716
  121EC       H 1209   0.497   1.204   0.728
  121EC       H 1210   0.563   1.059   0.648
  122EC       O 1211   0.496   3.512   2.200
  122EC       C 1212   0.489   3.481   2.317
  122EC       O 1213   0.541   3.555   2.420
  122EC       C 1214   0.535   3.474   2.535
  122EC       C 1215   0.422   3.380   2.504
  122EC       O 1216   0.430   3.367   2.363
  122EC       H 1217   0.631   3.422   2.546
  122EC       H 1218   0.516   3.533   2.625
  122EC       H 1219   0.325   3.423   2.531
  122EC       H 1220   0.433   3.283   2.553
  123EC       O 1221   1.904   0.110   0.055
  123EC       C 1222   1.957   0.218   0.039
  123EC       O 1223   1.941   0.296  -0.072
  123EC       C 1224   2.037   0.399  -0.063
  123EC       C 1225   2.060   0.410   0.085
  123EC       O 1226   2.041   0.277   0.130
  123EC       H 1227   2.127   0.368  -0.117
  123EC       H 1228   1.999   0.493  -0.105
  123EC       H 1229   1.987   0.475   0.134
  123EC       H 1230   2.161   0.445   0.110
  124EC       O 1231   3.538   2.942   1.579
  124EC       C 1232   3.494   2.953   1.466
  124EC       O 1233   3.568   2.946   1.352
  124EC       C 1234   3.486   2.989   1.246
  124EC       C 1235   3.348   2.959   1.297
  124EC       O 1236   3.362   2.977   1.437
  124EC       H 1237   3.503   3.096   1.231
  124EC       H 1238   3.508   2.935   1.154
  124EC       H 1239   3.318   2.856   1.277
  124EC       H 1240   3.272   3.027   1.256
  125EC       O 1241   3.301   1.335   2.398
  125EC       C 1242   3.368   1.249   2.453
  125EC       O 1243   3.496   1.216   2.419
  125EC       C 1244   3.527   1.098   2.488
  125EC       C 1245   3.436   1.103   2.607
  125EC       O 1246   3.322   1.171   2.556
  125EC       H 1247   3.506   1.013   2.423
  125EC       H 1248   3.632   1.095   2.517
  125EC       H 1249   3.478   1.161   2.689
  125EC       H 1250   3.408   1.004   2.643
  126EC       O 1251   3.205   0.200   3.828
  126EC       C 1252   3.205   0.204   3.706
  126EC       O 1253   3.197   0.095   3.625
  126EC       C 1254   3.225   0.139   3.494
  126EC       C 1255   3.187   0.283   3.499
  126EC       O 1256   3.215   0.320   3.633
  126EC       H 1257   3.332   0.125   3.475
  126EC       H 1258   3.168   0.083   3.420
  126EC       H 1259   3.080   0.298   3.480
  126EC       H 1260   3.244   0.345   3.429
  127EC       O 1261  -0.103   1.591   2.825
  127EC       C 1262  -0.011   1.586   2.745
  127EC       O 1263   0.034   1.692   2.672
  127EC       C 1264   0.124   1.641   2.577
  127EC       C 1265   0.172   1.515   2.641
  127EC       O 1266   0.060   1.472   2.717
  127EC       H 1267   0.068   1.621   2.484
  127EC       H 1268   0.205   1.710   2.556
  127EC       H 1269   0.257   1.533   2.708
  127EC       H 1270   0.201   1.438   2.568
  128EC       O 1271   1.664   2.994   1.323
  128EC       C 1272   1.619   3.107   1.313
  128EC       O 1273   1.694   3.219   1.290
  128EC       C 1274   1.610   3.329   1.310
  128EC       C 1275   1.474   3.273   1.281
  128EC       O 1276   1.486   3.138   1.324
  128EC       H 1277   1.620   3.363   1.413
  128EC       H 1278   1.635   3.411   1.242
  128EC       H 1279   1.450   3.274   1.175
  128EC       H 1280   1.394   3.323   1.337
  129EC       O 1281   0.178   2.541   3.599
  129EC       C 1282   0.278   2.521   3.666
  129EC       O 1283   0.327   2.398   3.698
  129EC       C 1284   0.426   2.418   3.796
  129EC       C 1285   0.472   2.558   3.769
  129EC       O 1286   0.354   2.621   3.720
  129EC       H 1287   0.380   2.407   3.895
  129EC       H 1288   0.507   2.345   3.786
  129EC       H 1289   0.549   2.561   3.691
  129EC       H 1290   0.509   2.609   3.859
  130EC       O 1291   0.563   1.820   2.578
  130EC       C 1292   0.561   1.839   2.457
  130EC       O 1293   0.468   1.787   2.372
  130EC       C 1294   0.514   1.812   2.241
  130EC       C 1295   0.601   1.932   2.259
  130EC       O 1296   0.653   1.915   2.390
  130EC       H 1297   0.570   1.724   2.208
  130EC       H 1298   0.432   1.830   2.172
  130EC       H 1299   0.544   2.025   2.255
  130EC       H 1300   0.683   1.937   2.186
  131EC       O 1301   2.771   1.177   3.222
  131EC       C 1302   2.768   1.198   3.102
  131EC       O 1303   2.677   1.145   3.016
  131EC       C 1304   2.722   1.173   2.886
  131EC       C 1305   2.805   1.296   2.906
  131EC       O 1306   2.857   1.279   3.036
  131EC       H 1307   2.782   1.088   2.851
  131EC       H 1308   2.639   1.190   2.817
  131EC       H 1309   2.745   1.387   2.903
  131EC       H 1310   2.886   1.305   2.832
  132EC       O 1311   1.593   1.138   1.971
  132EC       C 1312   1.550   1.153   2.084
  132EC       O 1313   1.628   1.168   2.195
  132EC       C 1314   1.543   1.157   2.306
  132EC       C 1315   1.410   1.198   2.251
  132EC       O 1316   1.417   1.155   2.116
  132EC       H 1317   1.543   1.052   2.340
  132EC       H 1318   1.575   1.221   2.388
  132EC       H 1319   1.397   1.307   2.253
  132EC       H 1320   1.325   1.151   2.302
  133EC       O 1321   1.955   1.109   3.240
  133EC       C 1322   1.872   1.104   3.151
  133EC       O 1323   1.756   1.033   3.157
  133EC       C 1324   1.701   1.033   3.028
  133EC       C 1325   1.758   1.158   2.968
  133EC       O 1326   1.885   1.169   3.031
  133EC       H 1327   1.735   0.943   2.976
  133EC       H 1328   1.592   1.034   3.030
  133EC       H 1329   1.698   1.246   2.992
  133EC       H 1330   1.770   1.152   2.859
  134EC       O 1331   2.454   2.081   1.668
  134EC       C 1332   2.403   2.123   1.565
  134EC       O 1333   2.279   2.089   1.520
  134EC       C 1334   2.268   2.139   1.389
  134EC       C 1335   2.364   2.255   1.390
  134EC       O 1336   2.464   2.212   1.481
  134EC       H 1337   2.299   2.061   1.319
  134EC       H 1338   2.166   2.170   1.366
  134EC       H 1339   2.317   2.346   1.428
  134EC       H 1340   2.407   2.275   1.291
  135EC       O 1341   2.720   2.822   1.277
  135EC       C 1342   2.789   2.808   1.376
  135EC       O 1343   2.870   2.903   1.430
  135EC       C 1344   2.949   2.840   1.527
  135EC       C 1345   2.865   2.723   1.568
  135EC       O 1346   2.795   2.691   1.449
  135EC       H 1347   3.043   2.808   1.481
  135EC       H 1348   2.971   2.906   1.611
  135EC       H 1349   2.792   2.750   1.646
  135EC       H 1350   2.924   2.638   1.602
  136EC       O 1351   2.327   3.657   0.577
  136EC       C 1352   2.378   3.719   0.485
  136EC       O 1353   2.486   3.802   0.496
  136EC       C 1354   2.497   3.871   0.374
  136EC       C 1355   2.432   3.778   0.277
  136EC       O 1356   2.332   3.714   0.356
  136EC       H 1357   2.443   3.966   0.384
  136EC       H 1358   2.601   3.891   0.349
  136EC       H 1359   2.501   3.702   0.240
  136EC       H 1360   2.386   3.830   0.192
  137EC       O 1361   1.093   1.986   0.125
  137EC       C 1362   1.141   2.094   0.093
  137EC       O 1363   1.076   2.213   0.100
  137EC       C 1364   1.155   2.307   0.033
  137EC       C 1365   1.293   2.249   0.046
  137EC       O 1366   1.269   2.110   0.046
  137EC       H 1367   1.122   2.312  -0.072
  137EC       H 1368   1.147   2.406   0.078
  137EC       H 1369   1.340   2.278   0.140
  137EC       H 1370   1.359   2.277  -0.037
  138EC       O 1371   1.393   2.869   2.678
  138EC       C 1372   1.306   2.947   2.641
  138EC       O 1373   1.175   2.940   2.676
  138EC       C 1374   1.105   3.031   2.595
  138EC       C 1375   1.211   3.131   2.560
  138EC       O 1376   1.329   3.053   2.558
  138EC       H 1377   1.068   2.978   2.507
  138EC       H 1378   1.021   3.076   2.648
  138EC       H 1379   1.221   3.209   2.637
  138EC       H 1380   1.194   3.179   2.463
  139EC       O 1381   1.771   1.975   2.567
  139EC       C 1382   1.655   1.968   2.605
  139EC       O 1383   1.615   1.974   2.735
  139EC       C 1384   1.479   1.937   2.738
  139EC       C 1385   1.433   1.972   2.600
  139EC       O 1386   1.548   1.951   2.521
  139EC       H 1387   1.473   1.829   2.757
  139EC       H 1388   1.425   1.991   2.815
  139EC       H 1389   1.403   2.077   2.592
  139EC       H 1390   1.350   1.909   2.565
  140EC       O 1391   3.368   0.658   2.620
  140EC       C 1392   3.327   0.550   2.584
  140EC       O 1393   3.203   0.526   2.531
  140EC       C 1394   3.187   0.387   2.526
  140EC       C 1395   3.327   0.337   2.518
  140EC       O 1396   3.400   0.434   2.592
  140EC       H 1397   3.136   0.354   2.617
  140EC       H 1398   3.127   0.357   2.439
  140EC       H 1399   3.365   0.336   2.415
  140EC       H 1400   3.340   0.237   2.562
  141EC       O 1401   0.602   2.908   3.224
  141EC       C 1402   0.676   2.947   3.135
  141EC       O 1403   0.745   3.064   3.137
  141EC       C 1404   0.797   3.083   3.008
  141EC       C 1405   0.806   2.943   2.955
  141EC       O 1406   0.698   2.878   3.019
  141EC       H 1407   0.727   3.144   2.951
  141EC       H 1408   0.894   3.133   3.011
  141EC       H 1409   0.900   2.894   2.984
  141EC       H 1410   0.796   2.938   2.846
  142EC       O 1411   1.250   1.308   2.884
  142EC       C 1412   1.178   1.209   2.880
  142EC       O 1413   1.182   1.107   2.970
  142EC       C 1414   1.104   1.003   2.916
  142EC       C 1415   1.009   1.076   2.827
  142EC       O 1416   1.085   1.187   2.782
  142EC       H 1417   1.170   0.935   2.861
  142EC       H 1418   1.052   0.947   2.995
  142EC       H 1419   0.921   1.112   2.880
  142EC       H 1420   0.976   1.015   2.741
  143EC       O 1421   1.260   0.252   2.910
  143EC       C 1422   1.300   0.366   2.890
  143EC       O 1423   1.253   0.477   2.954
  143EC       C 1424   1.306   0.588   2.886
  143EC       C 1425   1.431   0.534   2.825
  143EC       O 1426   1.397   0.398   2.800
  143EC       H 1427   1.233   0.621   2.811
  143EC       H 1428   1.326   0.671   2.955
  143EC       H 1429   1.515   0.537   2.894
  143EC       H 1430   1.459   0.585   2.732
  144EC       O 1431   3.851   2.667   1.257
  144EC       C 1432   3.815   2.691   1.143
  144EC       O 1433   3.712   2.773   1.110
  144EC       C 1434   3.687   2.755   0.973
  144EC       C 1435   3.819   2.708   0.921
  144EC       O 1436   3.873   2.637   1.032
  144EC       H 1437   3.609   2.679   0.962
  144EC       H 1438   3.654   2.847   0.926
  144EC       H 1439   3.885   2.792   0.897
  144EC       H 1440   3.810   2.643   0.834
  145EC       O 1441   3.750   3.064   2.210
  145EC       C 1442   3.745   3.183   2.239
  145EC       O 1443   3.646   3.242   2.311
  145EC       C 1444   3.665   3.381   2.301
  145EC       C 1445   3.812   3.392   2.274
  145EC       O 1446   3.840   3.274   2.201
  145EC       H 1447   3.605   3.418   2.217
  145EC       H 1448   3.636   3.432   2.392
  145EC       H 1449   3.871   3.392   2.366
  145EC       H 1450   3.838   3.481   2.215
  146EC       O 1451   1.764   0.191   2.408
  146EC       C 1452   1.840   0.226   2.496
  146EC       O 1453   1.816   0.328   2.584
  146EC       C 1454   1.937   0.353   2.651
  146EC       C 1455   2.008   0.222   2.642
  146EC       O 1456   1.963   0.170   2.517
  146EC       H 1457   1.990   0.433   2.598
  146EC       H 1458   1.920   0.383   2.754
  146EC       H 1459   1.979   0.153   2.722
  146EC       H 1460   2.117   0.232   2.641
  147EC       O 1461   2.962   0.559   3.412
  147EC       C 1462   2.962   0.485   3.315
  147EC       O 1463   2.851   0.453   3.242
  147EC       C 1464   2.888   0.348   3.156
  147EC       C 1465   3.035   0.369   3.140
  147EC       O 1466   3.074   0.424   3.265
  147EC       H 1467   2.864   0.253   3.205
  147EC       H 1468   2.835   0.354   3.061
  147EC       H 1469   3.059   0.441   3.061
  147EC       H 1470   3.090   0.276   3.120
  148EC       O 1471   1.024   3.473   3.876
  148EC       C 1472   1.065   3.471   3.761
  148EC       O 1473   1.104   3.359   3.694
  148EC       C 1474   1.167   3.401   3.576
  148EC       C 1475   1.106   3.536   3.552
  148EC       O 1476   1.080   3.583   3.684
  148EC       H 1477   1.275   3.407   3.595
  148EC       H 1478   1.149   3.332   3.494
  148EC       H 1479   1.012   3.529   3.497
  148EC       H 1480   1.174   3.604   3.499
  149EC       O 1481   1.792   3.678   2.812
  149EC       C 1482   1.896   3.643   2.865
  149EC       O 1483   2.006   3.598   2.799
  149EC       C 1484   2.094   3.546   2.895
  149EC       C 1485   2.055   3.621   3.019
  149EC       O 1486   1.916   3.644   3.000
  149EC       H 1487   2.075   3.438   2.905
  149EC       H 1488   2.198   3.562   2.868
  149EC       H 1489   2.106   3.717   3.026
  149EC       H 1490   2.073   3.564   3.111
  150EC       O 1491   0.362   1.573   0.084
  150EC       C 1492   0.419   1.674   0.122
  150EC       O 1493   0.543   1.714   0.081
  150EC       C 1494   0.582   1.820   0.165
  150EC       C 1495   0.451   1.876   0.211
  150EC       O 1496   0.366   1.762   0.213
  150EC       H 1497   0.640   1.778   0.248
  150EC       H 1498   0.642   1.894   0.112
  150EC       H 1499   0.410   1.949   0.140
  150EC       H 1500   0.456   1.922   0.310
  151EC       O 1501   2.208   1.030   2.689
  151EC       C 1502   2.295   1.021   2.604
  151EC       O 1503   2.281   0.956   2.485
  151EC       C 1504   2.409   0.948   2.428
  151EC       C 1505   2.480   1.066   2.489
  151EC       O 1506   2.419   1.076   2.617
  151EC       H 1507   2.455   0.853   2.457
  151EC       H 1508   2.405   0.955   2.319
  151EC       H 1509   2.461   1.158   2.433
  151EC       H 1510   2.588   1.050   2.498
  152EC       O 1511   3.555   2.123   2.271
  152EC       C 1512   3.571   2.006   2.303
  152EC       O 1513   3.485   1.933   2.379
  152EC       C 1514   3.551   1.814   2.414
  152EC       C 1515   3.650   1.798   2.303
  152EC       O 1516   3.681   1.932   2.268
  152EC       H 1517   3.600   1.828   2.511
  152EC       H 1518   3.482   1.730   2.420
  152EC       H 1519   3.607   1.748   2.216
  152EC       H 1520   3.741   1.745   2.333
  153EC       O 1521   3.488   2.304   2.684
  153EC       C 1522   3.386   2.265   2.739
  153EC       O 1523   3.383   2.182   2.847
  153EC       C 1524   3.249   2.141   2.863
  153EC       C 1525   3.172   2.252   2.800
  153EC       O 1526   3.259   2.297   2.697
  153EC       H 1527   3.236   2.046   2.810
  153EC       H 1528   3.224   2.127   2.968
  153EC       H 1529   3.154   2.335   2.870
  153EC       H 1530   3.077   2.220   2.758
  154EC       O 1531   2.759   1.691   0.869
  154EC       C 1532   2.746   1.661   0.986
  154EC       O 1533   2.731   1.534   1.033
  154EC       C 1534   2.693   1.544   1.168
  154EC       C 1535   2.750   1.677   1.208
  154EC       O 1536   2.742   1.753   1.088
  154EC       H 1537   2.584   1.542   1.174
  154EC       H 1538   2.734   1.463   1.228
  154EC       H 1539   2.854   1.670   1.239
  154EC       H 1540   2.692   1.726   1.288
  155EC       O 1541   1.811  -0.032   1.391
  155EC       C 1542   1.863   0.007   1.287
  155EC       O 1543   1.872  -0.066   1.173
  155EC       C 1544   1.959   0.003   1.087
  155EC       C 1545   1.947   0.144   1.134
  155EC       O 1546   1.922   0.130   1.273
  155EC       H 1547   2.060  -0.037   1.101
  155EC       H 1548   1.930  -0.008   0.982
  155EC       H 1549   1.862   0.196   1.088
  155EC       H 1550   2.038   0.203   1.117
  156EC       O 1551   2.123   1.295  -0.116
  156EC       C 1552   2.212   1.347  -0.049
  156EC       O 1553   2.224   1.336   0.086
  156EC       C 1554   2.322   1.428   0.126
  156EC       C 1555   2.405   1.444   0.003
  156EC       O 1556   2.311   1.425  -0.102
  156EC       H 1557   2.271   1.521   0.155
  156EC       H 1558   2.380   1.391   0.211
  156EC       H 1559   2.482   1.367  -0.004
  156EC       H 1560   2.452   1.543  -0.005
  157EC       O 1561   2.701   1.407   1.785
  157EC       C 1562   2.765   1.311   1.743
  157EC       O 1563   2.844   1.313   1.633
  157EC       C 1564   2.879   1.180   1.606
  157EC       C 1565   2.869   1.114   1.740
  157EC       O 1566   2.764   1.188   1.803
  157EC       H 1567   2.807   1.139   1.534
  157EC       H 1568   2.980   1.172   1.564
  157EC       H 1569   2.960   1.126   1.799
  157EC       H 1570   2.843   1.008   1.734
  158EC       O 1571   1.002   1.400   1.516
  158EC       C 1572   0.960   1.288   1.492
  158EC       O 1573   0.852   1.261   1.413
  158EC       C 1574   0.822   1.125   1.430
  158EC       C 1575   0.954   1.066   1.470
  158EC       O 1576   1.016   1.173   1.541
  158EC       H 1577   0.747   1.115   1.510
  158EC       H 1578   0.784   1.080   1.339
  158EC       H 1579   1.016   1.041   1.384
  158EC       H 1580   0.944   0.978   1.535
  159EC       O 1581   3.449   0.822   2.182
  159EC       C 1582   3.533   0.759   2.119
  159EC       O 1583   3.505   0.662   2.028
  159EC       C 1584   3.627   0.598   1.998
  159EC       C 1585   3.728   0.703   2.028
  159EC       O 1586   3.668   0.776   2.134
  159EC       H 1587   3.637   0.510   2.064
  159EC       H 1588   3.630   0.565   1.894
  159EC       H 1589   3.744   0.770   1.943
  159EC       H 1590   3.825   0.662   2.059
  160EC       O 1591   0.612   0.146   2.917
  160EC       C 1592   0.702   0.163   2.837
  160EC       O 1593   0.791   0.067   2.798
  160EC       C 1594   0.892   0.132   2.725
  160EC       C 1595   0.822   0.253   2.673
  160EC       O 1596   0.728   0.282   2.775
  160EC       H 1597   0.974   0.157   2.793
  160EC       H 1598   0.930   0.068   2.645
  160EC       H 1599   0.769   0.233   2.579
  160EC       H 1600   0.890   0.338   2.658
  161EC       O 1601   2.782   0.171   1.956
  161EC       C 1602   2.727   0.143   1.852
  161EC       O 1603   2.633   0.220   1.790
  161EC       C 1604   2.577   0.142   1.688
  161EC       C 1605   2.686   0.045   1.656
  161EC       O 1606   2.751   0.028   1.781
  161EC       H 1607   2.487   0.092   1.727
  161EC       H 1608   2.549   0.203   1.601
  161EC       H 1609   2.758   0.086   1.584
  161EC       H 1610   2.649  -0.051   1.618
  162EC       O 1611   3.714   0.268   3.136
  162EC       C 1612   3.623   0.285   3.215
  162EC       O 1613   3.603   0.211   3.328
  162EC       C 1614   3.475   0.244   3.377
  162EC       C 1615   3.453   0.382   3.322
  162EC       O 1616   3.525   0.379   3.199
  162EC       H 1617   3.404   0.172   3.337
  162EC       H 1618   3.472   0.242   3.486
  162EC       H 1619   3.496   0.459   3.387
  162EC       H 1620   3.348   0.404   3.305
  163EC       O 1621   0.808   2.180   3.140
  163EC       C 1622   0.823   2.176   3.019
  163EC       O 1623   0.777   2.076   2.938
  163EC       C 1624   0.836   2.096   2.812
  163EC       C 1625   0.865   2.242   2.811
  163EC       O 1626   0.891   2.271   2.947
  163EC       H 1627   0.927   2.035   2.807
  163EC       H 1628   0.769   2.066   2.731
  163EC       H 1629   0.778   2.301   2.778
  163EC       H 1630   0.951   2.269   2.749
  164EC       O 1631   2.848   0.220   0.459
  164EC       C 1632   2.773   0.307   0.500
  164EC       O 1633   2.644   0.324   0.458
  164EC       C 1634   2.601   0.448   0.510
  164EC       C 1635   2.687   0.465   0.631
  164EC       O 1636   2.808   0.401   0.593
  164EC       H 1637   2.618   0.525   0.434
  164EC       H 1638   2.495   0.446   0.535
  164EC       H 1639   2.646   0.415   0.719
  164EC       H 1640   2.706   0.571   0.655
  165EC       O 1641   0.873   1.386   0.358
  165EC       C 1642   0.835   1.338   0.253
  165EC       O 1643   0.905   1.340   0.136
  165EC       C 1644   0.818   1.296   0.035
  165EC       C 1645   0.720   1.212   0.110
  165EC       O 1646   0.715   1.274   0.237
  165EC       H 1647   0.770   1.384  -0.010
  165EC       H 1648   0.870   1.240  -0.042
  165EC       H 1649   0.755   1.109   0.122
  165EC       H 1650   0.620   1.210   0.064
  166EC       O 1651   2.213   1.729   2.652
  166EC       C 1652   2.235   1.743   2.533
  166EC       O 1653   2.167   1.679   2.433
  166EC       C 1654   2.238   1.703   2.314
  166EC       C 1655   2.308   1.832   2.343
  166EC       O 1656   2.332   1.825   2.483
  166EC       H 1657   2.308   1.621   2.298
  166EC       H 1658   2.171   1.711   2.228
  166EC       H 1659   2.245   1.919   2.322
  166EC       H 1660   2.403   1.842   2.288
  167EC       O 1661   1.014   0.997   0.393
  167EC       C 1662   1.092   0.980   0.301
  167EC       O 1663   1.134   0.858   0.255
  167EC       C 1664   1.241   0.882   0.167
  167EC       C 1665   1.213   1.021   0.118
  167EC       O 1666   1.150   1.082   0.230
  167EC       H 1667   1.334   0.875   0.223
  167EC       H 1668   1.242   0.809   0.086
  167EC       H 1669   1.144   1.022   0.034
  167EC       H 1670   1.304   1.075   0.091
  168EC       O 1671   2.815   1.509   1.889
  168EC       C 1672   2.894   1.425   1.928
  168EC       O 1673   2.861   1.315   2.001
  168EC       C 1674   2.982   1.259   2.047
  168EC       C 1675   3.081   1.306   1.945
  168EC       O 1676   3.029   1.432   1.906
  168EC       H 1677   3.003   1.299   2.147
  168EC       H 1678   2.976   1.150   2.052
  168EC       H 1679   3.085   1.240   1.858
  168EC       H 1680   3.182   1.317   1.986
  169EC       O 1681   1.633   2.752   3.645
  169EC       C 1682   1.642   2.758   3.523
  169EC       O 1683   1.723   2.679   3.448
  169EC       C 1684   1.722   2.733   3.318
  169EC       C 1685   1.590   2.803   3.312
  169EC       O 1686   1.571   2.845   3.446
  169EC       H 1687   1.807   2.802   3.308
  169EC       H 1688   1.731   2.655   3.242
  169EC       H 1689   1.509   2.736   3.283
  169EC       H 1690   1.591   2.889   3.244
  170EC       O 1691   3.372   2.958   0.287
  170EC       C 1692   3.458   3.031   0.241
  170EC       O 1693   3.443   3.111   0.132
  170EC       C 1694   3.571   3.158   0.098
  170EC       C 1695   3.644   3.153   0.228
  170EC       O 1696   3.584   3.041   0.294
  170EC       H 1697   3.614   3.091   0.023
  170EC       H 1698   3.566   3.260   0.058
  170EC       H 1699   3.628   3.242   0.289
  170EC       H 1700   3.752   3.137   0.216
  171DMC      C 1701   0.578   1.408   2.271
  171DMC      O 1702   0.616   1.351   2.146
  171DMC      C 1703   0.603   1.434   2.040
  171DMC      O 1704   0.561   1.549   2.045
  171DMC      O 1705   0.643   1.369   1.928
  171DMC      C 1706   0.632   1.446   1.810
  171DMC      H 1707   0.472   1.436   2.270
  171DMC      H 1708   0.593   1.334   2.349
  171DMC      H 1709   0.640   1.495   2.294
  171DMC      H 1710   0.666   1.384   1.725
  171DMC      H 1711   0.528   1.474   1.791
  171DMC      H 1712   0.696   1.534   1.816
  172DMC      C 1713   0.482   3.575   0.353
  172DMC      O 1714   0.541   3.601   0.225
  172DMC      C 1715   0.472   3.548   0.121
  172DMC      O 1716   0.369   3.483   0.129
  172DMC      O 1717   0.537   3.580   0.006
  172DMC      C 1718   0.475   3.530  -0.111
  172DMC      H 1719   0.477   3.468   0.372
  172DMC      H 1720   0.544   3.622   0.429
  172DMC      H 1721   0.382   3.619   0.359
  172DMC      H 1722   0.535   3.559  -0.198
  172DMC      H 1723   0.471   3.420  -0.109
  172DMC      H 1724   0.375   3.572  -0.122
  173DMC      C 1725   2.153   1.113   1.852
  173DMC      O 1726   2.083   1.218   1.784
  173DMC      C 1727   2.042   1.185   1.659
  173DMC      O 1728   2.061   1.078   1.603
  173DMC      O 1729   1.977   1.291   1.606
  173DMC      C 1730   1.929   1.270   1.474
  173DMC      H 1731   2.244   1.086   1.797
  173DMC      H 1732   2.181   1.149   1.951
  173DMC      H 1733   2.089   1.025   1.864
  173DMC      H 1734   1.879   1.361   1.440
  173DMC      H 1735   2.013   1.250   1.406
  173DMC      H 1736   1.857   1.188   1.472
  174DMC      C 1737   2.103   3.507   0.683
  174DMC      O 1738   2.047   3.548   0.809
  174DMC      C 1739   2.098   3.481   0.915
  174DMC      O 1740   2.183   3.393   0.911
  174DMC      O 1741   2.038   3.528   1.028
  174DMC      C 1742   2.082   3.466   1.147
  174DMC      H 1743   2.082   3.401   0.664
  174DMC      H 1744   2.056   3.567   0.604
  174DMC      H 1745   2.210   3.526   0.681
  174DMC      H 1746   2.028   3.510   1.231
  174DMC      H 1747   2.060   3.358   1.145
  174DMC      H 1748   2.189   3.483   1.162
  175DMC      C 1749   2.163   1.286   2.129
  175DMC      O 1750   2.210   1.356   2.244
  175DMC      C 1751   2.178   1.297   2.362
  175DMC      O 1752   2.113   1.194   2.374
  175DMC      O 1753   2.228   1.373   2.463
  175DMC      C 1754   2.200   1.321   2.592
  175DMC      H 1755   2.054   1.280   2.129
  175DMC      H 1756   2.195   1.341   2.040
  175DMC      H 1757   2.206   1.186   2.125
  175DMC      H 1758   2.244   1.389   2.666
  175DMC      H 1759   2.092   1.318   2.610
  175DMC      H 1760   2.245   1.223   2.605
  176DMC      C 1761   0.782   3.589   1.743
  176DMC      O 1762   0.659   3.584   1.817
  176DMC      C 1763   0.592   3.467   1.803
  176DMC      O 1764   0.627   3.372   1.735
  176DMC      O 1765   0.479   3.474   1.878
  176DMC      C 1766   0.399   3.357   1.872
  176DMC      H 1767   0.763   3.578   1.636
  176DMC      H 1768   0.828   3.687   1.760
  176DMC      H 1769   0.851   3.512   1.777
  176DMC      H 1770   0.310   3.373   1.934
  176DMC      H 1771   0.365   3.338   1.769
  176DMC      H 1772   0.453   3.271   1.911
  177DMC      C 1773   1.949   3.511   0.348
  177DMC      O 1774   1.824   3.558   0.295
  177DMC      C 1775   1.761   3.467   0.217
  177DMC      O 1776   1.802   3.355   0.190
  177DMC      O 1777   1.645   3.523   0.173
  177DMC      C 1778   1.569   3.437   0.089
  177DMC      H 1779   2.019   3.488   0.268
  177DMC      H 1780   1.991   3.591   0.410
  177DMC      H 1781   1.933   3.424   0.411
  177DMC      H 1782   1.478   3.491   0.058
  177DMC      H 1783   1.626   3.412  -0.002
  177DMC      H 1784   1.539   3.347   0.142
  178DMC      C 1785   0.147   0.335   2.849
  178DMC      O 1786   0.146   0.234   2.747
  178DMC      C 1787   0.185   0.279   2.626
  178DMC      O 1788   0.220   0.393   2.599
  178DMC      O 1789   0.180   0.175   2.538
  178DMC      C 1790   0.219   0.209   2.406
  178DMC      H 1791   0.079   0.416   2.824
  178DMC      H 1792   0.114   0.289   2.943
  178DMC      H 1793   0.248   0.373   2.864
  178DMC      H 1794   0.210   0.119   2.344
  178DMC      H 1795   0.152   0.286   2.365
  178DMC      H 1796   0.323   0.243   2.404
  179DMC      C 1797   3.513   0.803   0.982
  179DMC      O 1798   3.470   0.767   0.850
  179DMC      C 1799   3.467   0.870   0.763
  179DMC      O 1800   3.496   0.986   0.789
  179DMC      O 1801   3.425   0.824   0.643
  179DMC      C 1802   3.417   0.923   0.542
  179DMC      H 1803   3.445   0.876   1.026
  179DMC      H 1804   3.513   0.713   1.044
  179DMC      H 1805   3.615   0.843   0.980
  179DMC      H 1806   3.382   0.876   0.450
  179DMC      H 1807   3.344   1.000   0.570
  179DMC      H 1808   3.515   0.968   0.524
  180DMC      C 1809   3.284   3.250   1.354
  180DMC      O 1810   3.219   3.378   1.361
  180DMC      C 1811   3.187   3.416   1.487
  180DMC      O 1812   3.207   3.352   1.589
  180DMC      O 1813   3.126   3.538   1.481
  180DMC      C 1814   3.087   3.589   1.607
  180DMC      H 1815   3.218   3.171   1.393
  180DMC      H 1816   3.306   3.229   1.249
  180DMC      H 1817   3.378   3.252   1.409
  180DMC      H 1818   3.039   3.686   1.591
  180DMC      H 1819   3.013   3.522   1.654
  180DMC      H 1820   3.174   3.603   1.672
  181DMC      C 1821   2.479   0.617   2.517
  181DMC      O 1822   2.549   0.625   2.642
  181DMC      C 1823   2.468   0.617   2.750
  181DMC      O 1824   2.347   0.605   2.749
  181DMC      O 1825   2.546   0.626   2.862
  181DMC      C 1826   2.473   0.619   2.983
  181DMC      H 1827   2.408   0.700   2.507
  181DMC      H 1828   2.552   0.623   2.436
  181DMC      H 1829   2.427   0.521   2.509
  181DMC      H 1830   2.544   0.628   3.067
  181DMC      H 1831   2.402   0.703   2.990
  181DMC      H 1832   2.420   0.524   2.992
  182DMC      C 1833   2.909   2.248   0.413
  182DMC      O 1834   2.969   2.123   0.378
  182DMC      C 1835   3.083   2.135   0.306
  182DMC      O 1836   3.134   2.240   0.269
  182DMC      O 1837   3.130   2.011   0.279
  182DMC      C 1838   3.249   2.009   0.203
  182DMC      H 1839   2.880   2.304   0.323
  182DMC      H 1840   2.819   2.228   0.471
  182DMC      H 1841   2.977   2.308   0.474
  182DMC      H 1842   3.279   1.905   0.187
  182DMC      H 1843   3.233   2.056   0.105
  182DMC      H 1844   3.330   2.060   0.256
  183DMC      C 1845   2.683   2.769   2.473
  183DMC      O 1846   2.801   2.738   2.396
  183DMC      C 1847   2.775   2.712   2.266
  183DMC      O 1848   2.665   2.711   2.213
  183DMC      O 1849   2.893   2.685   2.204
  183DMC      C 1850   2.881   2.655   2.066
  183DMC      H 1851   2.614   2.684   2.473
  183DMC      H 1852   2.714   2.789   2.576
  183DMC      H 1853   2.634   2.858   2.434
  183DMC      H 1854   2.981   2.634   2.026
  183DMC      H 1855   2.819   2.565   2.052
  183DMC      H 1856   2.838   2.740   2.012
  184DMC      C 1857   1.335   0.813   0.817
  184DMC      O 1858   1.430   0.905   0.763
  184DMC      C 1859   1.494   0.860   0.652
  184DMC      O 1860   1.477   0.751   0.600
  184DMC      O 1861   1.580   0.956   0.610
  184DMC      C 1862   1.654   0.921   0.495
  184DMC      H 1863   1.385   0.720   0.848
  184DMC      H 1864   1.289   0.858   0.905
  184DMC      H 1865   1.256   0.791   0.744
  184DMC      H 1866   1.721   1.004   0.470
  184DMC      H 1867   1.716   0.833   0.515
  184DMC      H 1868   1.587   0.903   0.410
  185DMC      C 1869   2.126   2.369   2.634
  185DMC      O 1870   2.181   2.382   2.766
  185DMC      C 1871   2.087   2.393   2.863
  185DMC      O 1872   1.966   2.392   2.847
  185DMC      O 1873   2.152   2.405   2.983
  185DMC      C 1874   2.064   2.417   3.094
  185DMC      H 1875   2.065   2.456   2.608
  185DMC      H 1876   2.208   2.361   2.563
  185DMC      H 1877   2.065   2.278   2.627
  185DMC      H 1878   2.126   2.426   3.184
  185DMC      H 1879   2.002   2.507   3.085
  185DMC      H 1880   2.002   2.328   3.104
  186DMC      C 1881   0.369   0.389   3.549
  186DMC      O 1882   0.411   0.404   3.413
  186DMC      C 1883   0.460   0.290   3.358
  186DMC      O 1884   0.469   0.182   3.414
  186DMC      O 1885   0.496   0.317   3.230
  186DMC      C 1886   0.549   0.205   3.160
  186DMC      H 1887   0.453   0.359   3.612
  186DMC      H 1888   0.332   0.485   3.584
  186DMC      H 1889   0.288   0.316   3.556
  186DMC      H 1890   0.575   0.237   3.059
  186DMC      H 1891   0.640   0.168   3.210
  186DMC      H 1892   0.474   0.125   3.153
  187DMC      C 1893   3.436   1.769   3.008
  187DMC      O 1894   3.578   1.779   2.992
  187DMC      C 1895   3.646   1.784   3.109
  187DMC      O 1896   3.597   1.781   3.220
  187DMC      O 1897   3.779   1.793   3.080
  187DMC      C 1898   3.862   1.799   3.194
  187DMC      H 1899   3.397   1.857   3.062
  187DMC      H 1900   3.390   1.766   2.909
  187DMC      H 1901   3.410   1.677   3.062
  187DMC      H 1902   3.967   1.807   3.161
  187DMC      H 1903   3.839   1.888   3.254
  187DMC      H 1904   3.852   1.708   3.254
  188DMC      C 1905   2.913   3.170   0.186
  188DMC      O 1906   3.047   3.203   0.146
  188DMC      C 1907   3.064   3.210   0.012
  188DMC      O 1908   2.978   3.190  -0.072
  188DMC      O 1909   3.194   3.242  -0.013
  188DMC      C 1910   3.225   3.252  -0.150
  188DMC      H 1911   2.885   3.071   0.148
  188DMC      H 1912   2.910   3.167   0.295
  188DMC      H 1913   2.843   3.246   0.151
  188DMC      H 1914   3.332   3.278  -0.160
  188DMC      H 1915   3.209   3.156  -0.201
  188DMC      H 1916   3.167   3.331  -0.198
  189DMC      C 1917   1.730   3.429   3.582
  189DMC      O 1918   1.814   3.348   3.665
  189DMC      C 1919   1.943   3.388   3.666
  189DMC      O 1920   1.990   3.482   3.605
  189DMC      O 1921   2.013   3.304   3.748
  189DMC      C 1922   2.151   3.335   3.758
  189DMC      H 1923   1.763   3.425   3.478
  189DMC      H 1924   1.628   3.389   3.588
  189DMC      H 1925   1.728   3.532   3.618
  189DMC      H 1926   2.197   3.262   3.825
  189DMC      H 1927   2.199   3.327   3.660
  189DMC      H 1928   2.165   3.435   3.800
  190DMC      C 1929   2.985   2.601   2.682
  190DMC      O 1930   2.983   2.680   2.801
  190DMC      C 1931   2.918   2.621   2.904
  190DMC      O 1932   2.863   2.512   2.902
  190DMC      O 1933   2.924   2.705   3.011
  190DMC      C 1934   2.859   2.655   3.127
  190DMC      H 1935   2.883   2.584   2.646
  190DMC      H 1936   3.040   2.657   2.605
  190DMC      H 1937   3.036   2.506   2.699
  190DMC      H 1938   2.868   2.729   3.207
  190DMC      H 1939   2.751   2.640   3.107
  190DMC      H 1940   2.905   2.562   3.160
  191DMC      C 1941   1.422   2.003   0.336
  191DMC      O 1942   1.549   1.951   0.294
  191DMC      C 1943   1.652   2.036   0.314
  191DMC      O 1944   1.644   2.148   0.363
  191DMC      O 1945   1.766   1.976   0.271
  191DMC      C 1946   1.882   2.055   0.286
  191DMC      H 1947   1.397   2.094   0.280
  191DMC      H 1948   1.346   1.928   0.316
  191DMC      H 1949   1.423   2.024   0.443
  191DMC      H 1950   1.968   1.998   0.248
  191DMC      H 1951   1.874   2.148   0.227
  191DMC      H 1952   1.900   2.078   0.391
  192DMC      C 1953   1.777   1.962   1.456
  192DMC      O 1954   1.875   2.055   1.410
  192DMC      C 1955   1.935   2.018   1.294
  192DMC      O 1956   1.911   1.917   1.231
  192DMC      O 1957   2.026   2.114   1.261
  192DMC      C 1958   2.096   2.087   1.141
  192DMC      H 1959   1.822   1.864   1.476
  192DMC      H 1960   1.734   2.000   1.550
  192DMC      H 1961   1.696   1.953   1.383
  192DMC      H 1962   2.167   2.169   1.123
  192DMC      H 1963   2.153   1.994   1.149
  192DMC      H 1964   2.027   2.082   1.056
  193DMC      C 1965   1.720   1.746   2.803
  193DMC      O 1966   1.733   1.675   2.927
  193DMC      C 1967   1.626   1.599   2.958
  193DMC      O 1968   1.524   1.588   2.891
  193DMC      O 1969   1.651   1.537   3.077
  193DMC      C 1970   1.545   1.454   3.121
  193DMC      H 1971   1.635   1.815   2.807
  193DMC      H 1972   1.811   1.804   2.787
  193DMC      H 1973   1.708   1.676   2.720
  193DMC      H 1974   1.574   1.409   3.217
  193DMC      H 1975   1.454   1.513   3.137
  193DMC      H 1976   1.527   1.373   3.050
  194DMC      C 1977   2.089   2.813   1.262
  194DMC      O 1978   1.969   2.824   1.185
  194DMC      C 1979   1.987   2.803   1.053
  194DMC      O 1980   2.093   2.779   0.998
  194DMC      O 1981   1.866   2.815   0.991
  194DMC      C 1982   1.871   2.796   0.851
  194DMC      H 1983   2.162   2.889   1.231
  194DMC      H 1984   2.064   2.831   1.367
  194DMC      H 1985   2.132   2.713   1.254
  194DMC      H 1986   1.770   2.809   0.811
  194DMC      H 1987   1.936   2.872   0.804
  194DMC      H 1988   1.906   2.696   0.827
  195DMC      C 1989   3.384   2.421   1.000
  195DMC      O 1990   3.463   2.455   0.885
  195DMC      C 1991   3.391   2.512   0.785
  195DMC      O 1992   3.271   2.534   0.786
  195DMC      O 1993   3.477   2.540   0.683
  195DMC      C 1994   3.414   2.600   0.571
  195DMC      H 1995   3.307   2.348   0.973
  195DMC      H 1996   3.450   2.375   1.074
  195DMC      H 1997   3.339   2.510   1.043
  195DMC      H 1998   3.490   2.618   0.494
  195DMC      H 1999   3.338   2.533   0.528
  195DMC      H 2000   3.370   2.696   0.598
  196DMC      C 2001   2.859   3.544   3.152
  196DMC      O 2002   2.730   3.606   3.167
  196DMC      C 2003   2.736   3.736   3.201
  196DMC      O 2004   2.838   3.801   3.221
  196DMC      O 2005   2.608   3.783   3.211
  196DMC      C 2006   2.600   3.920   3.247
  196DMC      H 2007   2.914   3.547   3.247
  196DMC      H 2008   2.843   3.439   3.124
  196DMC      H 2009   2.916   3.593   3.074
  196DMC      H 2010   2.494   3.948   3.253
  196DMC      H 2011   2.645   3.937   3.346
  196DMC      H 2012   2.649   3.983   3.172
  197DMC      C 2013   1.665   1.797   0.928
  197DMC      O 2014   1.784   1.723   0.898
  197DMC      C 2015   1.761   1.608   0.830
  197DMC      O 2016   1.652   1.566   0.795
  197DMC      O 2017   1.880   1.548   0.807
  197DMC      C 2018   1.870   1.425   0.736
  197DMC      H 2019   1.598   1.738   0.992
  197DMC      H 2020   1.694   1.887   0.983
  197DMC      H 2021   1.615   1.827   0.837
  197DMC      H 2022   1.971   1.384   0.724
  197DMC      H 2023   1.811   1.352   0.793
  197DMC      H 2024   1.827   1.442   0.637
  198DMC      C 2025   2.842   1.797   2.486
  198DMC      O 2026   2.826   1.859   2.614
  198DMC      C 2027   2.857   1.777   2.718
  198DMC      O 2028   2.894   1.661   2.710
  198DMC      O 2029   2.838   1.847   2.834
  198DMC      C 2030   2.867   1.772   2.951
  198DMC      H 2031   2.776   1.710   2.476
  198DMC      H 2032   2.816   1.870   2.409
  198DMC      H 2033   2.946   1.767   2.470
  198DMC      H 2034   2.848   1.836   3.038
  198DMC      H 2035   2.800   1.685   2.958
  198DMC      H 2036   2.971   1.741   2.952
  199DMC      C 2037   1.677   1.442   3.626
  199DMC      O 2038   1.668   1.564   3.700
  199DMC      C 2039   1.554   1.633   3.676
  199DMC      O 2040   1.465   1.601   3.599
  199DMC      O 2041   1.556   1.746   3.752
  199DMC      C 2042   1.442   1.829   3.736
  199DMC      H 2043   1.677   1.462   3.518
  199DMC      H 2044   1.772   1.393   3.652
  199DMC      H 2045   1.596   1.374   3.652
  199DMC      H 2046   1.454   1.917   3.800
  199DMC      H 2047   1.434   1.864   3.632
  199DMC      H 2048   1.352   1.775   3.766
  200DMC      C 2049   2.905   3.702   2.949
  200DMC      O 2050   2.912   3.825   2.876
  200DMC      C 2051   2.933   3.808   2.743
  200DMC      O 2052   2.946   3.700   2.686
  200DMC      O 2053   2.937   3.930   2.684
  200DMC      C 2054   2.959   3.926   2.544
  200DMC      H 2055   2.999   3.647   2.942
  200DMC      H 2056   2.888   3.727   3.055
  200DMC      H 2057   2.822   3.641   2.914
  200DMC      H 2058   2.962   4.029   2.507
  200DMC      H 2059   3.056   3.879   2.522
  200DMC      H 2060   2.878   3.873   2.494
  201DMC      C 2061   0.231   3.159   1.656
  201DMC      O 2062   0.273   3.189   1.790
  201DMC      C 2063   0.268   3.083   1.874
  201DMC      O 2064   0.230   2.970   1.845
  201DMC      O 2065   0.310   3.123   1.996
  201DMC      C 2066   0.309   3.021   2.094
  201DMC      H 2067   0.126   3.126   1.655
  201DMC      H 2068   0.239   3.250   1.597
  201DMC      H 2069   0.295   3.083   1.612
  201DMC      H 2070   0.344   3.064   2.189
  201DMC      H 2071   0.206   2.984   2.110
  201DMC      H 2072   0.376   2.940   2.066
  202DMC      C 2073   2.783   3.621   1.367
  202DMC      O 2074   2.835   3.663   1.240
  202DMC      C 2075   2.787   3.592   1.135
  202DMC      O 2076   2.709   3.499   1.141
  202DMC      O 2077   2.843   3.642   1.021
  202DMC      C 2078   2.802   3.575   0.903
  202DMC      H 2079   2.811   3.517   1.387
  202DMC      H 2080   2.826   3.684   1.445
  202DMC      H 2081   2.674   3.632   1.370
  202DMC      H 2082   2.853   3.622   0.818
  202DMC      H 2083   2.831   3.469   0.906
  202DMC      H 2084   2.694   3.585   0.889
  203DMC      C 2085   1.088   1.042   3.590
  203DMC      O 2086   1.225   1.045   3.548
  203DMC      C 2087   1.274   1.170   3.529
  203DMC      O 2088   1.211   1.274   3.544
  203DMC      O 2089   1.403   1.160   3.490
  203DMC      C 2090   1.466   1.285   3.467
  203DMC      H 2091   1.023   1.087   3.514
  203DMC      H 2092   1.059   0.937   3.602
  203DMC      H 2093   1.076   1.093   3.686
  203DMC      H 2094   1.570   1.266   3.435
  203DMC      H 2095   1.415   1.339   3.386
  203DMC      H 2096   1.468   1.345   3.558
  204DMC      C 2097   1.659   0.729   2.920
  204DMC      O 2098   1.561   0.662   2.999
  204DMC      C 2099   1.601   0.541   3.045
  204DMC      O 2100   1.709   0.489   3.024
  204DMC      O 2101   1.500   0.488   3.118
  204DMC      C 2102   1.529   0.360   3.172
  204DMC      H 2103   1.684   0.671   2.830
  204DMC      H 2104   1.618   0.825   2.888
  204DMC      H 2105   1.749   0.749   2.978
  204DMC      H 2106   1.442   0.326   3.229
  204DMC      H 2107   1.548   0.288   3.092
  204DMC      H 2108   1.614   0.366   3.240
  205DMC      C 2109   2.253   0.381   0.832
  205DMC      O 2110   2.116   0.415   0.805
  205DMC      C 2111   2.099   0.541   0.759
  205DMC      O 2112   2.188   0.623   0.741
  205DMC      O 2113   1.967   0.561   0.738
  205DMC      C 2114   1.935   0.691   0.690
  205DMC      H 2115   2.294   0.446   0.909
  205DMC      H 2116   2.256   0.277   0.868
  205DMC      H 2117   2.312   0.387   0.741
  205DMC      H 2118   1.826   0.697   0.677
  205DMC      H 2119   1.965   0.768   0.763
  205DMC      H 2120   1.983   0.709   0.593
  206DMC      C 2121   0.890   3.213   1.525
  206DMC      O 2122   0.891   3.180   1.665
  206DMC      C 2123   1.011   3.197   1.725
  206DMC      O 2124   1.113   3.236   1.670
  206DMC      O 2125   0.998   3.163   1.856
  206DMC      C 2126   1.118   3.177   1.930
  206DMC      H 2127   0.960   3.149   1.470
  206DMC      H 2128   0.790   3.196   1.486
  206DMC      H 2129   0.916   3.318   1.510
  206DMC      H 2130   1.098   3.147   2.034
  206DMC      H 2131   1.196   3.111   1.890
  206DMC      H 2132   1.152   3.281   1.930
  207DMC      C 2133   2.940   0.371   1.642
  207DMC      O 2134   3.039   0.383   1.539
  207DMC      C 2135   2.999   0.457   1.433
  207DMC      O 2136   2.890   0.511   1.420
  207DMC      O 2137   3.101   0.461   1.343
  207DMC      C 2138   3.071   0.536   1.226
  207DMC      H 2139   2.850   0.322   1.604
  207DMC      H 2140   2.982   0.310   1.723
  207DMC      H 2141   2.915   0.470   1.683
  207DMC      H 2142   3.158   0.533   1.160
  207DMC      H 2143   2.986   0.492   1.172
  207DMC      H 2144   3.050   0.640   1.251
  208DMC      C 2145   3.131   0.763   2.405
  208DMC      O 2146   3.074   0.731   2.278
  208DMC      C 2147   3.166   0.712   2.180
  208DMC      O 2148   3.287   0.722   2.193
  208DMC      O 2149   3.100   0.682   2.065
  208DMC      C 2150   3.185   0.660   1.954
  208DMC      H 2151   3.187   0.857   2.400
  208DMC      H 2152   3.049   0.776   2.477
  208DMC      H 2153   3.196   0.683   2.440
  208DMC      H 2154   3.123   0.637   1.867
  208DMC      H 2155   3.243   0.751   1.931
  208DMC      H 2156   3.252   0.576   1.972
  209DMC      C 2157   3.080   1.351   2.672
  209DMC      O 2158   3.083   1.222   2.610
  209DMC      C 2159   3.025   1.125   2.685
  209DMC      O 2160   2.975   1.139   2.795
  209DMC      O 2161   3.033   1.008   2.615
  209DMC      C 2162   2.977   0.897   2.683
  209DMC      H 2163   3.136   1.350   2.767
  209DMC      H 2164   3.128   1.423   2.605
  209DMC      H 2165   2.978   1.384   2.689
  209DMC      H 2166   2.989   0.808   2.619
  209DMC      H 2167   3.029   0.878   2.778
  209DMC      H 2168   2.870   0.913   2.700
  210DMC      C 2169   2.003   0.115   1.576
  210DMC      O 2170   2.026   0.218   1.673
  210DMC      C 2171   1.940   0.216   1.777
  210DMC      O 2172   1.848   0.136   1.793
  210DMC      O 2173   1.973   0.318   1.861
  210DMC      C 2174   1.889   0.327   1.975
  210DMC      H 2175   1.903   0.125   1.532
  210DMC      H 2176   2.077   0.124   1.497
  210DMC      H 2177   2.014   0.016   1.622
  210DMC      H 2178   1.923   0.412   2.036
  210DMC      H 2179   1.785   0.346   1.945
  210DMC      H 2180   1.896   0.236   2.035
  211DMC      C 2181   0.938   1.931   0.700
  211DMC      O 2182   1.000   1.983   0.818
  211DMC      C 2183   0.969   1.913   0.930
  211DMC      O 2184   0.895   1.816   0.936
  211DMC      O 2185   1.033   1.971   1.035
  211DMC      C 2186   1.008   1.907   1.160
  211DMC      H 2187   0.829   1.937   0.708
  211DMC      H 2188   0.970   1.993   0.615
  211DMC      H 2189   0.970   1.829   0.681
  211DMC      H 2190   1.064   1.961   1.238
  211DMC      H 2191   0.901   1.913   1.185
  211DMC      H 2192   1.043   1.804   1.158
  212DMC      C 2193   3.024   3.788   0.466
  212DMC      O 2194   2.884   3.816   0.457
  212DMC      C 2195   2.819   3.808   0.575
  212DMC      O 2196   2.870   3.780   0.683
  212DMC      O 2197   2.688   3.836   0.554
  212DMC      C 2198   2.609   3.832   0.671
  212DMC      H 2199   3.042   3.686   0.502
  212DMC      H 2200   3.067   3.797   0.365
  212DMC      H 2201   3.074   3.861   0.531
  212DMC      H 2202   2.505   3.855   0.643
  212DMC      H 2203   2.610   3.731   0.715
  212DMC      H 2204   2.643   3.906   0.744
  213DMC      C 2205   0.061   2.355   1.744
  213DMC      O 2206   0.008   2.368   1.612
  213DMC      C 2207   0.100   2.401   1.519
  213DMC      O 2208   0.219   2.421   1.539
  213DMC      O 2209   0.037   2.411   1.398
  213DMC      C 2210   0.123   2.446   1.291
  213DMC      H 2211   0.105   2.450   1.778
  213DMC      H 2212  -0.020   2.328   1.812
  213DMC      H 2213   0.136   2.276   1.747
  213DMC      H 2214   0.063   2.451   1.199
  213DMC      H 2215   0.168   2.545   1.309
  213DMC      H 2216   0.201   2.370   1.278
  214DMC      C 2217   1.555   2.240   1.019
  214DMC      O 2218   1.472   2.193   1.125
  214DMC      C 2219   1.468   2.275   1.233
  214DMC      O 2220   1.529   2.380   1.245
  214DMC      O 2221   1.386   2.219   1.326
  214DMC      C 2222   1.373   2.296   1.445
  214DMC      H 2223   1.659   2.249   1.053
  214DMC      H 2224   1.552   2.168   0.937
  214DMC      H 2225   1.519   2.336   0.982
  214DMC      H 2226   1.306   2.242   1.513
  214DMC      H 2227   1.471   2.305   1.494
  214DMC      H 2228   1.331   2.394   1.423
  215DMC      C 2229   1.881   3.079   2.770
  215DMC      O 2230   1.789   3.111   2.665
  215DMC      C 2231   1.814   3.045   2.549
  215DMC      O 2232   1.906   2.966   2.530
  215DMC      O 2233   1.721   3.082   2.458
  215DMC      C 2234   1.737   3.021   2.331
  215DMC      H 2235   1.983   3.107   2.742
  215DMC      H 2236   1.852   3.137   2.859
  215DMC      H 2237   1.876   2.973   2.795
  215DMC      H 2238   1.657   3.058   2.265
  215DMC      H 2239   1.833   3.047   2.287
  215DMC      H 2240   1.727   2.912   2.340
  216DMC      C 2241   0.659   0.204   0.673
  216DMC      O 2242   0.681   0.291   0.785
  216DMC      C 2243   0.789   0.257   0.859
  216DMC      O 2244   0.864   0.163   0.838
  216DMC      O 2245   0.799   0.346   0.962
  216DMC      C 2246   0.910   0.322   1.047
  216DMC      H 2247   0.641   0.101   0.707
  216DMC      H 2248   0.570   0.239   0.620
  216DMC      H 2249   0.743   0.208   0.604
  216DMC      H 2250   0.909   0.398   1.127
  216DMC      H 2251   0.901   0.224   1.095
  216DMC      H 2252   1.004   0.330   0.993
  217DMC      C 2253   0.172   1.345   1.784
  217DMC      O 2254   0.209   1.286   1.658
  217DMC      C 2255   0.135   1.330   1.554
  217DMC      O 2256   0.043   1.411   1.560
  217DMC      O 2257   0.179   1.268   1.442
  217DMC      C 2258   0.108   1.305   1.324
  217DMC      H 2259   0.069   1.320   1.809
  217DMC      H 2260   0.238   1.304   1.861
  217DMC      H 2261   0.186   1.453   1.781
  217DMC      H 2262   0.151   1.249   1.240
  217DMC      H 2263   0.002   1.277   1.333
  217DMC      H 2264   0.120   1.411   1.304
  218DMC      C 2265   2.680   2.485   0.881
  218DMC      O 2266   2.644   2.551   1.003
  218DMC      C 2267   2.510   2.559   1.023
  218DMC      O 2268   2.424   2.517   0.948
  218DMC      O 2269   2.488   2.623   1.141
  218DMC      C 2270   2.351   2.638   1.174
  218DMC      H 2271   2.641   2.540   0.795
  218DMC      H 2272   2.789   2.484   0.875
  218DMC      H 2273   2.644   2.382   0.881
  218DMC      H 2274   2.344   2.691   1.270
  218DMC      H 2275   2.300   2.699   1.098
  218DMC      H 2276   2.303   2.541   1.184
  219DMC      C 2277   1.584   0.200   3.607
  219DMC      O 2278   1.538   0.184   3.742
  219DMC      C 2279   1.619   0.105   3.817
  219DMC      O 2280   1.721   0.050   3.780
  219DMC      O 2281   1.566   0.098   3.942
  219DMC      C 2282   1.641   0.017   4.032
  219DMC      H 2283   1.587   0.104   3.555
  219DMC      H 2284   1.513   0.265   3.555
  219DMC      H 2285   1.682   0.248   3.605
  219DMC      H 2286   1.590   0.017   4.129
  219DMC      H 2287   1.645  -0.086   3.996
  219DMC      H 2288   1.741   0.058   4.046
  220DMC      C 2289   1.126   2.701   1.807
  220DMC      O 2290   1.061   2.667   1.684
  220DMC      C 2291   1.110   2.732   1.577
  220DMC      O 2292   1.200   2.815   1.578
  220DMC      O 2293   1.041   2.691   1.467
  220DMC      C 2294   1.083   2.753   1.346
  220DMC      H 2295   1.112   2.808   1.830
  220DMC      H 2296   1.080   2.643   1.888
  220DMC      H 2297   1.232   2.677   1.803
  220DMC      H 2298   1.021   2.714   1.264
  220DMC      H 2299   1.066   2.862   1.351
  220DMC      H 2300   1.187   2.731   1.325
  221DMC      C 2301   0.762   2.865   0.274
  221DMC      O 2302   0.676   2.969   0.226
  221DMC      C 2303   0.583   2.926   0.137
  221DMC      O 2304   0.569   2.811   0.098
  221DMC      O 2305   0.507   3.033   0.100
  221DMC      C 2306   0.406   3.001   0.006
  221DMC      H 2307   0.819   2.821   0.191
  221DMC      H 2308   0.833   2.910   0.344
  221DMC      H 2309   0.705   2.789   0.326
  221DMC      H 2310   0.352   3.093  -0.018
  221DMC      H 2311   0.450   2.962  -0.087
  221DMC      H 2312   0.335   2.929   0.048
  222DMC      C 2313   1.494   2.680   1.557
  222DMC      O 2314   1.453   2.763   1.447
  222DMC      C 2315   1.450   2.699   1.328
  222DMC      O 2316   1.480   2.582   1.309
  222DMC      O 2317   1.410   2.788   1.233
  222DMC      C 2318   1.403   2.733   1.103
  222DMC      H 2319   1.596   2.643   1.541
  222DMC      H 2320   1.492   2.740   1.648
  222DMC      H 2321   1.425   2.597   1.570
  222DMC      H 2322   1.370   2.812   1.034
  222DMC      H 2323   1.502   2.699   1.070
  222DMC      H 2324   1.331   2.651   1.099
  223DMC      C 2325   1.820   0.336   0.520
  223DMC      O 2326   1.943   0.403   0.549
  223DMC      C 2327   1.975   0.499   0.459
  223DMC      O 2328   1.910   0.529   0.361
  223DMC      O 2329   2.093   0.555   0.497
  223DMC      C 2330   2.138   0.657   0.410
  223DMC      H 2331   1.825   0.285   0.424
  223DMC      H 2332   1.802   0.261   0.598
  223DMC      H 2333   1.736   0.406   0.522
  223DMC      H 2334   2.234   0.695   0.449
  223DMC      H 2335   2.156   0.618   0.310
  223DMC      H 2336   2.067   0.740   0.408
  224DMC      C 2337   1.491   1.832   1.389
  224DMC      O 2338   1.383   1.907   1.330
  224DMC      C 2339   1.304   1.969   1.421
  224DMC      O 2340   1.317   1.964   1.543
  224DMC      O 2341   1.208   2.037   1.354
  224DMC      C 2342   1.117   2.106   1.439
  224DMC      H 2343   1.451   1.752   1.452
  224DMC      H 2344   1.548   1.787   1.308
  224DMC      H 2345   1.557   1.897   1.446
  224DMC      H 2346   1.043   2.157   1.375
  224DMC      H 2347   1.063   2.036   1.504
  224DMC      H 2348   1.170   2.182   1.498
  225DMC      C 2349   0.385   0.236   2.079
  225DMC      O 2350   0.379   0.302   1.952
  225DMC      C 2351   0.458   0.245   1.858
  225DMC      O 2352   0.529   0.147   1.874
  225DMC      O 2353   0.444   0.315   1.742
  225DMC      C 2354   0.522   0.266   1.635
  225DMC      H 2355   0.486   0.239   2.120
  225DMC      H 2356   0.318   0.289   2.148
  225DMC      H 2357   0.350   0.133   2.071
  225DMC      H 2358   0.505   0.330   1.547
  225DMC      H 2359   0.629   0.271   1.660
  225DMC      H 2360   0.493   0.164   1.610
  226DMC      C 2361   0.937   0.746   3.706
  226DMC      O 2362   1.045   0.653   3.690
  226DMC      C 2363   1.058   0.567   3.794
  226DMC      O 2364   0.989   0.564   3.894
  226DMC      O 2365   1.163   0.484   3.767
  226DMC      C 2366   1.188   0.388   3.869
  226DMC      H 2367   0.953   0.808   3.794
  226DMC      H 2368   0.934   0.810   3.618
  226DMC      H 2369   0.842   0.693   3.713
  226DMC      H 2370   1.274   0.327   3.838
  226DMC      H 2371   1.213   0.438   3.963
  226DMC      H 2372   1.102   0.323   3.882
  227DMC      C 2373   3.250   0.246   1.788
  227DMC      O 2374   3.335   0.245   1.673
  227DMC      C 2375   3.343   0.364   1.609
  227DMC      O 2376   3.283   0.466   1.641
  227DMC      O 2377   3.427   0.350   1.503
  227DMC      C 2378   3.443   0.468   1.427
  227DMC      H 2379   3.147   0.270   1.759
  227DMC      H 2380   3.250   0.146   1.833
  227DMC      H 2381   3.286   0.317   1.862
  227DMC      H 2382   3.511   0.447   1.344
  227DMC      H 2383   3.347   0.500   1.384
  227DMC      H 2384   3.486   0.548   1.488
  228DMC      C 2385   3.745   2.535   2.929
  228DMC      O 2386   3.688   2.660   2.971
  228DMC      C 2387   3.770   2.766   2.951
  228DMC      O 2388   3.882   2.762   2.903
  228DMC      O 2389   3.705   2.878   2.994
  228DMC      C 2390   3.780   2.997   2.979
  228DMC      H 2391   3.837   2.513   2.985
  228DMC      H 2392   3.672   2.456   2.949
  228DMC      H 2393   3.766   2.536   2.822
  228DMC      H 2394   3.720   3.080   3.017
  228DMC      H 2395   3.873   2.992   3.038
  228DMC      H 2396   3.802   3.015   2.873
  229DMC      C 2397   1.253   2.273   0.406
  229DMC      O 2398   1.280   2.370   0.304
  229DMC      C 2399   1.221   2.490   0.326
  229DMC      O 2400   1.151   2.519   0.421
  229DMC      O 2401   1.254   2.572   0.223
  229DMC      C 2402   1.199   2.702   0.233
  229DMC      H 2403   1.145   2.252   0.413
  229DMC      H 2404   1.304   2.180   0.379
  229DMC      H 2405   1.291   2.307   0.502
  229DMC      H 2406   1.230   2.761   0.146
  229DMC      H 2407   1.089   2.698   0.233
  229DMC      H 2408   1.235   2.752   0.323
  230DMC      C 2409   3.595   1.028   1.569
  230DMC      O 2410   3.732   0.985   1.566
  230DMC      C 2411   3.793   1.007   1.446
  230DMC      O 2412   3.741   1.057   1.348
  230DMC      O 2413   3.921   0.963   1.456
  230DMC      C 2414   3.996   0.980   1.336
  230DMC      H 2415   3.536   0.973   1.496
  230DMC      H 2416   3.556   1.007   1.669
  230DMC      H 2417   3.588   1.136   1.552
  230DMC      H 2418   4.097   0.941   1.353
  230DMC      H 2419   3.951   0.922   1.254
  230DMC      H 2420   4.003   1.085   1.310
  231DMC      C 2421   1.647   3.510   2.589
  231DMC      O 2422   1.544   3.598   2.635
  231DMC      C 2423   1.421   3.567   2.588
  231DMC      O 2424   1.394   3.475   2.513
  231DMC      O 2425   1.333   3.657   2.639
  231DMC      C 2426   1.199   3.636   2.597
  231DMC      H 2427   1.656   3.514   2.480
  231DMC      H 2428   1.742   3.542   2.632
  231DMC      H 2429   1.628   3.407   2.622
  231DMC      H 2430   1.136   3.713   2.642
  231DMC      H 2431   1.191   3.645   2.488
  231DMC      H 2432   1.163   3.538   2.630
  232DMC      C 2433   2.875   2.318  -0.132
  232DMC      O 2434   2.829   2.447  -0.089
  232DMC      C 2435   2.730   2.441   0.003
  232DMC      O 2436   2.680   2.339   0.049
  232DMC      O 2437   2.695   2.568   0.035
  232DMC      C 2438   2.591   2.576   0.132
  232DMC      H 2439   2.794   2.261  -0.179
  232DMC      H 2440   2.955   2.333  -0.206
  232DMC      H 2441   2.917   2.262  -0.048
  232DMC      H 2442   2.569   2.682   0.150
  232DMC      H 2443   2.499   2.530   0.093
  232DMC      H 2444   2.622   2.530   0.225
  233DMC      C 2445   0.532   2.326   0.670
  233DMC      O 2446   0.391   2.328   0.646
  233DMC      C 2447   0.337   2.205   0.626
  233DMC      O 2448   0.398   2.099   0.627
  233DMC      O 2449   0.204   2.220   0.604
  233DMC      C 2450   0.135   2.098   0.582
  233DMC      H 2451   0.585   2.284   0.584
  233DMC      H 2452   0.565   2.429   0.685
  233DMC      H 2453   0.555   2.269   0.760
  233DMC      H 2454   0.029   2.120   0.565
  233DMC      H 2455   0.174   2.048   0.491
  233DMC      H 2456   0.144   2.032   0.669
  234DMC      C 2457   0.866   0.444   1.929
  234DMC      O 2458   0.818   0.524   1.820
  234DMC      C 2459   0.797   0.454   1.706
  234DMC      O 2460   0.815   0.334   1.691
  234DMC      O 2461   0.752   0.540   1.611
  234DMC      C 2462   0.726   0.479   1.486
  234DMC      H 2463   0.962   0.398   1.904
  234DMC      H 2464   0.879   0.509   2.016
  234DMC      H 2465   0.793   0.367   1.955
  234DMC      H 2466   0.691   0.557   1.416
  234DMC      H 2467   0.818   0.436   1.444
  234DMC      H 2468   0.648   0.404   1.495
  235DMC      C 2469   3.705   3.016   0.721
  235DMC      O 2470   3.754   2.985   0.589
  235DMC      C 2471   3.701   2.873   0.536
  235DMC      O 2472   3.619   2.799   0.590
  235DMC      O 2473   3.754   2.855   0.412
  235DMC      C 2474   3.707   2.739   0.346
  235DMC      H 2475   3.730   2.935   0.791
  235DMC      H 2476   3.753   3.108   0.755
  235DMC      H 2477   3.597   3.032   0.719
  235DMC      H 2478   3.756   2.734   0.248
  235DMC      H 2479   3.733   2.649   0.402
  235DMC      H 2480   3.599   2.745   0.330
  236DMC      C 2481   0.040   1.598   0.814
  236DMC      O 2482   0.149   1.580   0.905
  236DMC      C 2483   0.130   1.638   1.026
  236DMC      O 2484   0.031   1.702   1.059
  236DMC      O 2485   0.239   1.614   1.103
  236DMC      C 2486   0.231   1.671   1.233
  236DMC      H 2487   0.024   1.704   0.793
  236DMC      H 2488   0.065   1.548   0.720
  236DMC      H 2489  -0.051   1.553   0.854
  236DMC      H 2490   0.324   1.646   1.286
  236DMC      H 2491   0.223   1.780   1.227
  236DMC      H 2492   0.147   1.628   1.288
  237DMC      C 2493   1.538   2.878   0.428
  237DMC      O 2494   1.571   2.898   0.290
  237DMC      C 2495   1.475   2.854   0.204
  237DMC      O 2496   1.371   2.799   0.236
  237DMC      O 2497   1.517   2.879   0.077
  237DMC      C 2498   1.426   2.836  -0.023
  237DMC      H 2499   1.528   2.771   0.449
  237DMC      H 2500   1.621   2.917   0.488
  237DMC      H 2501   1.447   2.931   0.454
  237DMC      H 2502   1.469   2.860  -0.121
  237DMC      H 2503   1.412   2.727  -0.018
  237DMC      H 2504   1.330   2.888  -0.012
  238DMC      C 2505   1.469   0.724   2.041
  238DMC      O 2506   1.493   0.860   2.003
  238DMC      C 2507   1.480   0.883   1.870
  238DMC      O 2508   1.451   0.799   1.786
  238DMC      O 2509   1.504   1.014   1.847
  238DMC      C 2510   1.494   1.052   1.711
  238DMC      H 2511   1.541   0.657   1.992
  238DMC      H 2512   1.482   0.716   2.149
  238DMC      H 2513   1.367   0.694   2.016
  238DMC      H 2514   1.516   1.159   1.703
  238DMC      H 2515   1.568   0.997   1.650
  238DMC      H 2516   1.393   1.034   1.674
  239DMC      C 2517   0.017   1.379   2.092
  239DMC      O 2518  -0.025   1.248   2.132
  239DMC      C 2519   0.076   1.167   2.171
  239DMC      O 2520   0.195   1.197   2.173
  239DMC      O 2521   0.023   1.047   2.207
  239DMC      C 2522   0.120   0.953   2.249
  239DMC      H 2523   0.084   1.373   2.006
  239DMC      H 2524  -0.071   1.437   2.064
  239DMC      H 2525   0.066   1.431   2.175
  239DMC      H 2526   0.068   0.859   2.275
  239DMC      H 2527   0.191   0.930   2.168
  239DMC      H 2528   0.173   0.988   2.337
  240DMC      C 2529   3.269   0.612   0.929
  240DMC      O 2530   3.363   0.616   0.822
  240DMC      C 2531   3.477   0.548   0.847
  240DMC      O 2532   3.504   0.488   0.950
  240DMC      O 2533   3.558   0.559   0.738
  240DMC      C 2534   3.683   0.492   0.753
  240DMC      H 2535   3.310   0.659   1.019
  240DMC      H 2536   3.180   0.669   0.899
  240DMC      H 2537   3.238   0.510   0.950
  240DMC      H 2538   3.740   0.507   0.660
  240DMC      H 2539   3.740   0.535   0.836
  240DMC      H 2540   3.667   0.385   0.767
  241DMC      C 2541   1.758   1.372   2.400
  241DMC      O 2542   1.670   1.484   2.383
  241DMC      C 2543   1.733   1.599   2.350
  241DMC      O 2544   1.854   1.612   2.335
  241DMC      O 2545   1.640   1.696   2.336
  241DMC      C 2546   1.694   1.823   2.302
  241DMC      H 2547   1.829   1.391   2.481
  241DMC      H 2548   1.697   1.285   2.427
  241DMC      H 2549   1.811   1.350   2.307
  241DMC      H 2550   1.611   1.895   2.294
  241DMC      H 2551   1.762   1.858   2.380
  241DMC      H 2552   1.745   1.818   2.205
  242DMC      C 2553  -0.007   2.015   3.550
  242DMC      O 2554  -0.017   1.975   3.687
  242DMC      C 2555   0.049   2.058   3.772
  242DMC      O 2556   0.112   2.157   3.741
  242DMC      O 2557   0.032   2.010   3.898
  242DMC      C 2558   0.097   2.087   3.998
  242DMC      H 2559   0.097   2.015   3.516
  242DMC      H 2560  -0.063   1.943   3.489
  242DMC      H 2561  -0.051   2.114   3.535
  242DMC      H 2562   0.078   2.040   4.096
  242DMC      H 2563   0.205   2.089   3.982
  242DMC      H 2564   0.056   2.189   4.000
  243DMC      C 2565   2.963   1.779   3.256
  243DMC      O 2566   2.865   1.791   3.360
  243DMC      C 2567   2.810   1.673   3.397
  243DMC      O 2568   2.836   1.563   3.349
  243DMC      O 2569   2.721   1.697   3.496
  243DMC      C 2570   2.655   1.581   3.544
  243DMC      H 2571   2.917   1.738   3.165
  243DMC      H 2572   3.001   1.879   3.233
  243DMC      H 2573   3.046   1.716   3.288
  243DMC      H 2574   2.585   1.611   3.623
  243DMC      H 2575   2.597   1.533   3.464
  243DMC      H 2576   2.727   1.511   3.587
  244DMC      C 2577   3.479   2.385   2.388
  244DMC      O 2578   3.391   2.334   2.489
  244DMC      C 2579   3.308   2.236   2.446
  244DMC      O 2580   3.303   2.192   2.332
  244DMC      O 2581   3.231   2.197   2.550
  244DMC      C 2582   3.139   2.094   2.517
  244DMC      H 2583   3.422   2.429   2.306
  244DMC      H 2584   3.542   2.462   2.432
  244DMC      H 2585   3.544   2.305   2.350
  244DMC      H 2586   3.081   2.070   2.608
  244DMC      H 2587   3.068   2.129   2.440
  244DMC      H 2588   3.191   2.004   2.485
  245DMC      C 2589   2.078   1.536   3.571
  245DMC      O 2590   2.211   1.591   3.572
  245DMC      C 2591   2.255   1.629   3.450
  245DMC      O 2592   2.193   1.619   3.345
  245DMC      O 2593   2.381   1.678   3.464
  245DMC      C 2594   2.439   1.722   3.342
  245DMC      H 2595   2.074   1.446   3.509
  245DMC      H 2596   2.052   1.509   3.674
  245DMC      H 2597   2.006   1.611   3.536
  245DMC      H 2598   2.540   1.759   3.364
  245DMC      H 2599   2.449   1.638   3.272
  245DMC      H 2600   2.381   1.803   3.298
  246DMC      C 2601   0.317   1.740   3.324
  246DMC      O 2602   0.423   1.805   3.251
  246DMC      C 2603   0.386   1.848   3.128
  246DMC      O 2604   0.275   1.834   3.078
  246DMC      O 2605   0.494   1.907   3.070
  246DMC      C 2606   0.468   1.956   2.939
  246DMC      H 2607   0.283   1.651   3.271
  246DMC      H 2608   0.357   1.710   3.421
  246DMC      H 2609   0.234   1.809   3.340
  246DMC      H 2610   0.561   2.001   2.901
  246DMC      H 2611   0.440   1.874   2.872
  246DMC      H 2612   0.391   2.033   2.941
  247DMC      C 2613   1.152   3.216   3.043
  247DMC      O 2614   1.265   3.198   3.130
  247DMC      C 2615   1.235   3.214   3.261
  247DMC      O 2616   1.125   3.241   3.307
  247DMC      O 2617   1.349   3.195   3.332
  247DMC      C 2618   1.332   3.209   3.473
  247DMC      H 2619   1.111   3.317   3.052
  247DMC      H 2620   1.186   3.201   2.940
  247DMC      H 2621   1.075   3.141   3.065
  247DMC      H 2622   1.429   3.193   3.521
  247DMC      H 2623   1.299   3.310   3.497
  247DMC      H 2624   1.262   3.134   3.510
  248DMC      C 2625   1.973   2.416   1.164
  248DMC      O 2626   1.918   2.481   1.279
  248DMC      C 2627   1.858   2.599   1.252
  248DMC      O 2628   1.849   2.652   1.142
  248DMC      O 2629   1.809   2.650   1.369
  248DMC      C 2630   1.744   2.775   1.354
  248DMC      H 2631   2.051   2.479   1.118
  248DMC      H 2632   2.019   2.322   1.196
  248DMC      H 2633   1.895   2.394   1.091
  248DMC      H 2634   1.709   2.807   1.453
  248DMC      H 2635   1.813   2.851   1.316
  248DMC      H 2636   1.657   2.765   1.289
  249DMC      C 2637   2.627   2.076   3.263
  249DMC      O 2638   2.568   1.976   3.180
  249DMC      C 2639   2.432   1.973   3.187
  249DMC      O 2640   2.362   2.046   3.255
  249DMC      O 2641   2.388   1.874   3.104
  249DMC      C 2642   2.247   1.861   3.102
  249DMC      H 2643   2.603   2.059   3.368
  249DMC      H 2644   2.736   2.071   3.251
  249DMC      H 2645   2.594   2.176   3.232
  249DMC      H 2646   2.221   1.779   3.034
  249DMC      H 2647   2.209   1.834   3.202
  249DMC      H 2648   2.200   1.952   3.065
  250DMC      C 2649   1.642   3.628   1.525
  250DMC      O 2650   1.688   3.621   1.390
  250DMC      C 2651   1.752   3.505   1.360
  250DMC      O 2652   1.773   3.413   1.437
  250DMC      O 2653   1.790   3.510   1.229
  250DMC      C 2654   1.859   3.395   1.185
  250DMC      H 2655   1.726   3.622   1.595
  250DMC      H 2656   1.591   3.724   1.539
  250DMC      H 2657   1.570   3.548   1.546
  250DMC      H 2658   1.886   3.409   1.080
  250DMC      H 2659   1.952   3.381   1.242
  250DMC      H 2660   1.796   3.306   1.194
  251DMC      C 2661   0.112   3.536   1.392
  251DMC      O 2662   0.067   3.567   1.259
  251DMC      C 2663   0.145   3.515   1.162
  251DMC      O 2664   0.245   3.447   1.178
  251DMC      O 2665   0.093   3.551   1.041
  251DMC      C 2666   0.166   3.503   0.930
  251DMC      H 2667   0.212   3.576   1.409
  251DMC      H 2668   0.043   3.582   1.463
  251DMC      H 2669   0.111   3.428   1.408
  251DMC      H 2670   0.116   3.538   0.839
  251DMC      H 2671   0.268   3.543   0.930
  251DMC      H 2672   0.167   3.394   0.929
  252DMC      C 2673   1.756   2.838   0.013
  252DMC      O 2674   1.747   2.845   0.156
  252DMC      C 2675   1.803   2.956   0.209
  252DMC      O 2676   1.858   3.045   0.147
  252DMC      O 2677   1.788   2.950   0.344
  252DMC      C 2678   1.843   3.062   0.413
  252DMC      H 2679   1.860   2.837  -0.019
  252DMC      H 2680   1.708   2.746  -0.020
  252DMC      H 2681   1.703   2.923  -0.032
  252DMC      H 2682   1.827   3.047   0.520
  252DMC      H 2683   1.952   3.067   0.396
  252DMC      H 2684   1.794   3.154   0.382
  253DMC      C 2685   1.993   3.564   2.412
  253DMC      O 2686   2.004   3.468   2.306
  253DMC      C 2687   2.131   3.432   2.279
  253DMC      O 2688   2.231   3.474   2.335
  253DMC      O 2689   2.129   3.341   2.178
  253DMC      C 2690   2.257   3.295   2.139
  253DMC      H 2691   2.044   3.657   2.386
  253DMC      H 2692   1.887   3.587   2.427
  253DMC      H 2693   2.032   3.524   2.506
  253DMC      H 2694   2.244   3.223   2.057
  253DMC      H 2695   2.318   3.378   2.102
  253DMC      H 2696   2.306   3.244   2.222
  254DMC      C 2697   0.148   1.987   2.260
  254DMC      O 2698   0.145   2.063   2.381
  254DMC      C 2699   0.100   1.994   2.488
  254DMC      O 2700   0.064   1.877   2.488
  254DMC      O 2701   0.102   2.077   2.596
  254DMC      C 2702   0.057   2.016   2.716
  254DMC      H 2703   0.047   1.953   2.233
  254DMC      H 2704   0.185   2.051   2.180
  254DMC      H 2705   0.215   1.902   2.270
  254DMC      H 2706   0.062   2.090   2.797
  254DMC      H 2707  -0.047   1.983   2.706
  254DMC      H 2708   0.121   1.932   2.743
  255DMC      C 2709   1.259   2.840   2.979
  255DMC      O 2710   1.206   2.752   3.079
  255DMC      C 2711   1.092   2.689   3.042
  255DMC      O 2712   1.034   2.703   2.935
  255DMC      O 2713   1.053   2.609   3.144
  255DMC      C 2714   0.933   2.538   3.118
  255DMC      H 2715   1.188   2.920   2.957
  255DMC      H 2716   1.351   2.885   3.018
  255DMC      H 2717   1.284   2.784   2.888
  255DMC      H 2718   0.909   2.477   3.206
  255DMC      H 2719   0.849   2.607   3.101
  255DMC      H 2720   0.945   2.471   3.032
  256DMC      C 2721   2.539   3.221   2.060
  256DMC      O 2722   2.458   3.277   1.956
  256DMC      C 2723   2.525   3.362   1.875
  256DMC      O 2724   2.643   3.394   1.885
  256DMC      O 2725   2.438   3.407   1.780
  256DMC      C 2726   2.496   3.499   1.688
  256DMC      H 2727   2.577   3.300   2.126
  256DMC      H 2728   2.477   3.153   2.119
  256DMC      H 2729   2.622   3.163   2.018
  256DMC      H 2730   2.418   3.530   1.617
  256DMC      H 2731   2.532   3.589   1.741
  256DMC      H 2732   2.577   3.452   1.633
  257DMC      C 2733   1.064  -0.106   3.257
  257DMC      O 2734   0.965  -0.030   3.186
  257DMC      C 2735   1.002   0.097   3.160
  257DMC      O 2736   1.108   0.149   3.192
  257DMC      O 2737   0.901   0.158   3.093
  257DMC      C 2738   0.928   0.294   3.060
  257DMC      H 2739   1.084  -0.061   3.355
  257DMC      H 2740   1.024  -0.207   3.273
  257DMC      H 2741   1.156  -0.114   3.199
  257DMC      H 2742   0.841   0.334   3.007
  257DMC      H 2743   0.943   0.353   3.151
  257DMC      H 2744   1.015   0.301   2.994
  258DMC      C 2745   0.826   1.443   2.861
  258DMC      O 2746   0.939   1.524   2.899
  258DMC      C 2747   1.053   1.493   2.833
  258DMC      O 2748   1.065   1.406   2.749
  258DMC      O 2749   1.151   1.576   2.878
  258DMC      C 2750   1.277   1.554   2.816
  258DMC      H 2751   0.845   1.338   2.883
  258DMC      H 2752   0.739   1.475   2.919
  258DMC      H 2753   0.803   1.457   2.755
  258DMC      H 2754   1.349   1.624   2.859
  258DMC      H 2755   1.313   1.452   2.837
  258DMC      H 2756   1.271   1.571   2.709
  259DMC      C 2757   0.936   0.712   1.016
  259DMC      O 2758   1.040   0.761   1.101
  259DMC      C 2759   1.078   0.672   1.196
  259DMC      O 2760   1.031   0.561   1.213
  259DMC      O 2761   1.177   0.729   1.271
  259DMC      C 2762   1.225   0.645   1.375
  259DMC      H 2763   0.845   0.691   1.073
  259DMC      H 2764   0.913   0.790   0.942
  259DMC      H 2765   0.969   0.623   0.962
  259DMC      H 2766   1.304   0.700   1.429
  259DMC      H 2767   1.145   0.623   1.446
  259DMC      H 2768   1.268   0.554   1.334
  260DMC      C 2769   3.664   2.805   2.243
  260DMC      O 2770   3.729   2.781   2.369
  260DMC      C 2771   3.669   2.843   2.473
  260DMC      O 2772   3.570   2.914   2.467
  260DMC      O 2773   3.739   2.813   2.586
  260DMC      C 2774   3.687   2.873   2.703
  260DMC      H 2775   3.665   2.912   2.218
  260DMC      H 2776   3.719   2.751   2.165
  260DMC      H 2777   3.562   2.767   2.245
  260DMC      H 2778   3.750   2.843   2.788
  260DMC      H 2779   3.689   2.982   2.696
  260DMC      H 2780   3.585   2.838   2.722
  261DMC      C 2781   2.551   2.821   0.533
  261DMC      O 2782   2.571   2.918   0.430
  261DMC      C 2783   2.523   2.881   0.309
  261DMC      O 2784   2.467   2.776   0.284
  261DMC      O 2785   2.548   2.981   0.221
  261DMC      C 2786   2.502   2.955   0.089
  261DMC      H 2787   2.602   2.727   0.508
  261DMC      H 2788   2.593   2.860   0.626
  261DMC      H 2789   2.444   2.803   0.548
  261DMC      H 2790   2.528   3.041   0.026
  261DMC      H 2791   2.553   2.866   0.048
  261DMC      H 2792   2.394   2.942   0.088
  262DMC      C 2793   0.138   1.088   0.160
  262DMC      O 2794   0.138   0.949   0.197
  262DMC      C 2795   0.248   0.911   0.266
  262DMC      O 2796   0.342   0.983   0.296
  262DMC      O 2797   0.235   0.779   0.296
  262DMC      C 2798   0.345   0.726   0.368
  262DMC      H 2799   0.223   1.110   0.094
  262DMC      H 2800   0.046   1.109   0.105
  262DMC      H 2801   0.141   1.152   0.248
  262DMC      H 2802   0.326   0.619   0.387
  262DMC      H 2803   0.437   0.734   0.309
  262DMC      H 2804   0.356   0.776   0.464
  263DMC      C 2805   2.483   1.775   2.020
  263DMC      O 2806   2.580   1.808   2.120
  263DMC      C 2807   2.669   1.708   2.144
  263DMC      O 2808   2.671   1.599   2.089
  263DMC      O 2809   2.755   1.751   2.240
  263DMC      C 2810   2.854   1.655   2.275
  263DMC      H 2811   2.423   1.689   2.050
  263DMC      H 2812   2.416   1.861   2.008
  263DMC      H 2813   2.531   1.756   1.924
  263DMC      H 2814   2.917   1.698   2.353
  263DMC      H 2815   2.807   1.564   2.315
  263DMC      H 2816   2.916   1.631   2.188
  264DMC      C 2817   2.824   3.560   2.265
  264DMC      O 2818   2.799   3.681   2.338
  264DMC      C 2819   2.759   3.661   2.466
  264DMC      O 2820   2.743   3.553   2.520
  264DMC      O 2821   2.740   3.783   2.523
  264DMC      C 2822   2.697   3.776   2.659
  264DMC      H 2823   2.732   3.500   2.259
  264DMC      H 2824   2.855   3.586   2.164
  264DMC      H 2825   2.904   3.502   2.312
  264DMC      H 2826   2.684   3.878   2.695
  264DMC      H 2827   2.600   3.724   2.666
  264DMC      H 2828   2.773   3.726   2.720
  265DMC      C 2829   2.354   2.675   3.442
  265DMC      O 2830   2.268   2.582   3.509
  265DMC      C 2831   2.149   2.635   3.547
  265DMC      O 2832   2.113   2.750   3.529
  265DMC      O 2833   2.077   2.537   3.608
  265DMC      C 2834   1.950   2.580   3.654
  265DMC      H 2835   2.378   2.759   3.507
  265DMC      H 2836   2.446   2.624   3.415
  265DMC      H 2837   2.307   2.711   3.350
  265DMC      H 2838   1.901   2.494   3.702
  265DMC      H 2839   1.960   2.660   3.728
  265DMC      H 2840   1.888   2.612   3.570
  266DMC      C 2841   0.929   2.739   3.364
  266DMC      O 2842   0.914   2.841   3.464
  266DMC      C 2843   0.922   2.967   3.415
  266DMC      O 2844   0.942   2.998   3.299
  266DMC      O 2845   0.905   3.053   3.519
  266DMC      C 2846   0.912   3.190   3.482
  266DMC      H 2847   1.028   2.746   3.316
  266DMC      H 2848   0.921   2.642   3.412
  266DMC      H 2849   0.850   2.747   3.288
  266DMC      H 2850   0.899   3.251   3.572
  266DMC      H 2851   1.011   3.213   3.440
  266DMC      H 2852   0.833   3.214   3.411
  267DMC      C 2853   3.244   2.010   0.762
  267DMC      O 2854   3.260   2.153   0.760
  267DMC      C 2855   3.146   2.220   0.728
  267DMC      O 2856   3.038   2.169   0.701
  267DMC      O 2857   3.173   2.353   0.731
  267DMC      C 2858   3.062   2.434   0.699
  267DMC      H 2859   3.216   1.974   0.662
  267DMC      H 2860   3.340   1.966   0.789
  267DMC      H 2861   3.170   1.980   0.836
  267DMC      H 2862   3.094   2.539   0.703
  267DMC      H 2863   3.027   2.414   0.596
  267DMC      H 2864   2.981   2.420   0.771
  268DMC      C 2865   1.698   0.772   3.541
  268DMC      O 2866   1.652   0.700   3.656
  268DMC      C 2867   1.751   0.645   3.729
  268DMC      O 2868   1.871   0.652   3.705
  268DMC      O 2869   1.695   0.580   3.835
  268DMC      C 2870   1.790   0.517   3.920
  268DMC      H 2871   1.752   0.706   3.472
  268DMC      H 2872   1.611   0.813   3.489
  268DMC      H 2873   1.762   0.855   3.571
  268DMC      H 2874   1.735   0.467   4.001
  268DMC      H 2875   1.846   0.440   3.865
  268DMC      H 2876   1.857   0.591   3.964
  269DMC      C 2877   2.121   1.088   0.492
  269DMC      O 2878   2.065   1.154   0.377
  269DMC      C 2879   1.944   1.210   0.400
  269DMC      O 2880   1.882   1.207   0.505
  269DMC      O 2881   1.902   1.269   0.285
  269DMC      C 2882   1.775   1.331   0.295
  269DMC      H 2883   2.056   1.006   0.524
  269DMC      H 2884   2.218   1.047   0.464
  269DMC      H 2885   2.135   1.159   0.574
  269DMC      H 2886   1.750   1.374   0.197
  269DMC      H 2887   1.697   1.256   0.319
  269DMC      H 2888   1.777   1.410   0.369
  270DMC      C 2889   2.734   0.941   3.167
  270DMC      O 2890   2.791   0.924   3.298
  270DMC      C 2891   2.705   0.948   3.399
  270DMC      O 2892   2.588   0.982   3.387
  270DMC      O 2893   2.770   0.928   3.516
  270DMC      C 2894   2.690   0.950   3.631
  270DMC      H 2895   2.700   1.045   3.153
  270DMC      H 2896   2.811   0.920   3.093
  270DMC      H 2897   2.651   0.872   3.152
  270DMC      H 2898   2.753   0.932   3.720
  270DMC      H 2899   2.656   1.055   3.635
  270DMC      H 2900   2.606   0.881   3.633
  271DMC      C 2901   3.530   2.133   1.270
  271DMC      O 2902   3.442   2.060   1.183
  271DMC      C 2903   3.507   1.990   1.087
  271DMC      O 2904   3.628   1.986   1.071
  271DMC      O 2905   3.415   1.925   1.012
  271DMC      C 2906   3.470   1.847   0.907
  271DMC      H 2907   3.587   2.207   1.214
  271DMC      H 2908   3.468   2.186   1.344
  271DMC      H 2909   3.596   2.065   1.324
  271DMC      H 2910   3.388   1.800   0.852
  271DMC      H 2911   3.525   1.911   0.837
  271DMC      H 2912   3.535   1.769   0.947
  272DMC      C 2913   2.767   3.336   3.686
  272DMC      O 2914   2.753   3.245   3.576
  272DMC      C 2915   2.742   3.115   3.614
  272DMC      O 2916   2.744   3.074   3.729
  272DMC      O 2917   2.729   3.040   3.502
  272DMC      C 2918   2.717   2.901   3.527
  272DMC      H 2919   2.858   3.314   3.743
  272DMC      H 2920   2.775   3.437   3.646
  272DMC      H 2921   2.679   3.331   3.751
  272DMC      H 2922   2.708   2.849   3.431
  272DMC      H 2923   2.807   2.863   3.578
  272DMC      H 2924   2.628   2.880   3.587
  273DMC      C 2925   1.226   3.295   0.247
  273DMC      O 2926   1.110   3.229   0.298
  273DMC      C 2927   1.070   3.275   0.419
  273DMC      O 2928   1.124   3.364   0.483
  273DMC      O 2929   0.959   3.205   0.456
  273DMC      C 2930   0.907   3.244   0.582
  273DMC      H 2931   1.312   3.280   0.313
  273DMC      H 2932   1.250   3.251   0.149
  273DMC      H 2933   1.207   3.402   0.232
  273DMC      H 2934   0.819   3.182   0.604
  273DMC      H 2935   0.981   3.226   0.662
  273DMC      H 2936   0.876   3.349   0.581
  274DMC      C 2937   3.771   3.276   3.401
  274DMC      O 2938   3.677   3.177   3.360
  274DMC      C 2939   3.556   3.227   3.326
  274DMC      O 2940   3.523   3.344   3.330
  274DMC      O 2941   3.476   3.123   3.288
  274DMC      C 2942   3.345   3.162   3.251
  274DMC      H 2943   3.735   3.328   3.491
  274DMC      H 2944   3.865   3.227   3.426
  274DMC      H 2945   3.790   3.348   3.321
  274DMC      H 2946   3.289   3.072   3.223
  274DMC      H 2947   3.293   3.209   3.336
  274DMC      H 2948   3.348   3.229   3.165
  275DMC      C 2949   1.985   3.599   3.412
  275DMC      O 2950   1.920   3.473   3.392
  275DMC      C 2951   1.989   3.367   3.440
  275DMC      O 2952   2.098   3.372   3.496
  275DMC      O 2953   1.917   3.255   3.415
  275DMC      C 2954   1.980   3.136   3.461
  275DMC      H 2955   2.081   3.601   3.361
  275DMC      H 2956   1.921   3.678   3.371
  275DMC      H 2957   1.998   3.619   3.519
  275DMC      H 2958   1.914   3.051   3.436
  275DMC      H 2959   2.076   3.121   3.410
  275DMC      H 2960   1.993   3.138   3.569
  276DMC      C 2961   3.560   0.029   2.430
  276DMC      O 2962   3.557   0.060   2.290
  276DMC      C 2963   3.462   0.151   2.257
  276DMC      O 2964   3.383   0.203   2.334
  276DMC      O 2965   3.469   0.173   2.123
  276DMC      C 2966   3.374   0.266   2.075
  276DMC      H 2967   3.465  -0.016   2.462
  276DMC      H 2968   3.640  -0.045   2.447
  276DMC      H 2969   3.582   0.118   2.489
  276DMC      H 2970   3.388   0.276   1.966
  276DMC      H 2971   3.272   0.230   2.093
  276DMC      H 2972   3.389   0.364   2.121
  277DMC      C 2973   0.768   3.436   1.473
  277DMC      O 2974   0.723   3.564   1.426
  277DMC      C 2975   0.824   3.645   1.386
  277DMC      O 2976   0.943   3.618   1.389
  277DMC      O 2977   0.770   3.762   1.344
  277DMC      C 2978   0.866   3.857   1.300
  277DMC      H 2979   0.832   3.447   1.560
  277DMC      H 2980   0.679   3.378   1.502
  277DMC      H 2981   0.820   3.381   1.394
  277DMC      H 2982   0.813   3.948   1.269
  277DMC      H 2983   0.934   3.884   1.382
  277DMC      H 2984   0.922   3.818   1.214
  278DMC      C 2985   3.402   0.056   3.163
  278DMC      O 2986   3.414   0.064   3.021
  278DMC      C 2987   3.298   0.091   2.957
  278DMC      O 2988   3.189   0.108   3.011
  278DMC      O 2989   3.322   0.097   2.824
  278DMC      C 2990   3.208   0.124   2.745
  278DMC      H 2991   3.334  -0.025   3.192
  278DMC      H 2992   3.501   0.034   3.205
  278DMC      H 2993   3.368   0.151   3.204
  278DMC      H 2994   3.238   0.126   2.640
  278DMC      H 2995   3.132   0.045   2.758
  278DMC      H 2996   3.166   0.222   2.771
  279DMC      C 2997   3.463   1.584   0.353
  279DMC      O 2998   3.325   1.554   0.330
  279DMC      C 2999   3.291   1.426   0.359
  279DMC      O 3000   3.367   1.339   0.400
  279DMC      O 3001   3.158   1.410   0.334
  279DMC      C 3002   3.110   1.280   0.360
  279DMC      H 3003   3.527   1.522   0.289
  279DMC      H 3004   3.480   1.689   0.327
  279DMC      H 3005   3.489   1.569   0.458
  279DMC      H 3006   3.003   1.277   0.337
  279DMC      H 3007   3.161   1.206   0.296
  279DMC      H 3008   3.123   1.254   0.466
  280DMC      C 3009   3.295   0.667   2.975
  280DMC      O 3010   3.373   0.604   2.872
  280DMC      C 3011   3.391   0.472   2.891
  280DMC      O 3012   3.349   0.405   2.984
  280DMC      O 3013   3.466   0.424   2.788
  280DMC      C 3014   3.493   0.285   2.795
  280DMC      H 3015   3.344   0.657   3.072
  280DMC      H 3016   3.285   0.773   2.951
  280DMC      H 3017   3.194   0.623   2.978
  280DMC      H 3018   3.555   0.257   2.709
  280DMC      H 3019   3.551   0.262   2.886
  280DMC      H 3020   3.401   0.228   2.792
  281DMC      C 3021   2.483   2.739   1.552
  281DMC      O 3022   2.461   2.850   1.639
  281DMC      C 3023   2.526   2.841   1.757
  281DMC      O 3024   2.599   2.749   1.792
  281DMC      O 3025   2.498   2.952   1.830
  281DMC      C 3026   2.560   2.955   1.957
  281DMC      H 3027   2.448   2.646   1.598
  281DMC      H 3028   2.426   2.756   1.459
  281DMC      H 3029   2.589   2.731   1.526
  281DMC      H 3030   2.530   3.047   2.008
  281DMC      H 3031   2.527   2.870   2.019
  281DMC      H 3032   2.669   2.955   1.946
  282DMC      C 3033   2.958   2.106   1.611
  282DMC      O 3034   3.017   2.063   1.488
  282DMC      C 3035   2.929   2.056   1.385
  282DMC      O 3036   2.809   2.082   1.391
  282DMC      O 3037   2.996   2.015   1.274
  282DMC      C 3038   2.914   2.003   1.159
  282DMC      H 3039   2.881   2.035   1.644
  282DMC      H 3040   3.037   2.108   1.688
  282DMC      H 3041   2.917   2.206   1.602
  282DMC      H 3042   2.977   1.969   1.076
  282DMC      H 3043   2.835   1.928   1.175
  282DMC      H 3044   2.871   2.100   1.132
  283DMC      C 3045   1.504   3.325   2.910
  283DMC      O 3046   1.499   3.183   2.891
  283DMC      C 3047   1.592   3.115   2.963
  283DMC      O 3048   1.676   3.165   3.036
  283DMC      O 3049   1.577   2.983   2.937
  283DMC      C 3050   1.670   2.900   3.006
  283DMC      H 3051   1.601   3.365   2.877
  283DMC      H 3052   1.425   3.370   2.849
  283DMC      H 3053   1.486   3.351   3.014
  283DMC      H 3054   1.650   2.796   2.978
  283DMC      H 3055   1.773   2.924   2.975
  283DMC      H 3056   1.658   2.910   3.114
  284DMC      C 3057   2.314   3.234   2.947
  284DMC      O 3058   2.326   3.164   2.823
  284DMC      C 3059   2.365   3.242   2.720
  284DMC      O 3060   2.388   3.362   2.725
  284DMC      O 3061   2.373   3.165   2.608
  284DMC      C 3062   2.412   3.235   2.492
  284DMC      H 3063   2.239   3.313   2.940
  284DMC      H 3064   2.283   3.163   3.024
  284DMC      H 3065   2.410   3.276   2.977
  284DMC      H 3066   2.415   3.165   2.408
  284DMC      H 3067   2.339   3.314   2.468
  284DMC      H 3068   2.512   3.278   2.505
  285DMC      C 3069   1.054   0.401   1.673
  285DMC      O 3070   1.177   0.469   1.648
  285DMC      C 3071   1.285   0.387   1.646
  285DMC      O 3072   1.284   0.266   1.664
  285DMC      O 3073   1.395   0.463   1.621
  285DMC      C 3074   1.516   0.389   1.617
  285DMC      H 3075   1.055   0.352   1.771
  285DMC      H 3076   0.973   0.474   1.672
  285DMC      H 3077   1.034   0.327   1.594
  285DMC      H 3078   1.598   0.459   1.597
  285DMC      H 3079   1.535   0.341   1.713
  285DMC      H 3080   1.513   0.315   1.536
  286DMC      C 3081   1.082   2.894   0.448
  286DMC      O 3082   1.172   2.936   0.345
  286DMC      C 3083   1.110   2.996   0.241
  286DMC      O 3084   0.990   3.014   0.229
  286DMC      O 3085   1.206   3.032   0.151
  286DMC      C 3086   1.154   3.096   0.035
  286DMC      H 3087   1.011   2.819   0.410
  286DMC      H 3088   1.140   2.847   0.528
  286DMC      H 3089   1.028   2.979   0.490
  286DMC      H 3090   1.238   3.120  -0.031
  286DMC      H 3091   1.086   3.028  -0.020
  286DMC      H 3092   1.103   3.189   0.062
  287DMC      C 3093   2.189   1.346   0.484
  287DMC      O 3094   2.114   1.320   0.604
  287DMC      C 3095   2.189   1.321   0.716
  287DMC      O 3096   2.309   1.342   0.722
  287DMC      O 3097   2.107   1.295   0.822
  287DMC      C 3098   2.174   1.294   0.947
  287DMC      H 3099   2.266   1.270   0.469
  287DMC      H 3100   2.120   1.343   0.399
  287DMC      H 3101   2.234   1.445   0.488
  287DMC      H 3102   2.100   1.271   1.025
  287DMC      H 3103   2.250   1.214   0.949
  287DMC      H 3104   2.219   1.391   0.968
  288DMC      C 3105   1.084   2.200   2.138
  288DMC      O 3106   0.992   2.262   2.228
  288DMC      C 3107   0.862   2.241   2.196
  288DMC      O 3108   0.821   2.177   2.100
  288DMC      O 3109   0.785   2.305   2.288
  288DMC      C 3110   0.645   2.291   2.266
  288DMC      H 3111   1.072   2.240   2.037
  288DMC      H 3112   1.186   2.223   2.172
  288DMC      H 3113   1.071   2.092   2.138
  288DMC      H 3114   0.592   2.345   2.345
  288DMC      H 3115   0.617   2.335   2.169
  288DMC      H 3116   0.616   2.186   2.270
  289DMC      C 3117   3.404   1.219   3.591
  289DMC      O 3118   3.439   1.334   3.514
  289DMC      C 3119   3.382   1.336   3.391
  289DMC      O 3120   3.308   1.251   3.344
  289DMC      O 3121   3.422   1.450   3.328
  289DMC      C 3122   3.369   1.464   3.196
  289DMC      H 3123   3.438   1.127   3.542
  289DMC      H 3124   3.454   1.227   3.688
  289DMC      H 3125   3.296   1.215   3.608
  289DMC      H 3126   3.408   1.558   3.154
  289DMC      H 3127   3.403   1.382   3.132
  289DMC      H 3128   3.260   1.469   3.199
  290DMC      C 3129   0.414   1.711   1.658
  290DMC      O 3130   0.342   1.769   1.767
  290DMC      C 3131   0.364   1.901   1.783
  290DMC      O 3132   0.438   1.970   1.714
  290DMC      O 3133   0.290   1.944   1.888
  290DMC      C 3134   0.305   2.083   1.916
  290DMC      H 3135   0.522   1.721   1.673
  290DMC      H 3136   0.390   1.604   1.653
  290DMC      H 3137   0.385   1.757   1.563
  290DMC      H 3138   0.242   2.107   2.003
  290DMC      H 3139   0.409   2.106   1.942
  290DMC      H 3140   0.271   2.143   1.831
  291DMC      C 3141   0.650   0.717   3.153
  291DMC      O 3142   0.718   0.599   3.109
  291DMC      C 3143   0.734   0.593   2.974
  291DMC      O 3144   0.696   0.677   2.894
  291DMC      O 3145   0.799   0.478   2.944
  291DMC      C 3146   0.822   0.459   2.806
  291DMC      H 3147   0.549   0.722   3.112
  291DMC      H 3148   0.643   0.713   3.262
  291DMC      H 3149   0.707   0.807   3.126
  291DMC      H 3150   0.874   0.363   2.792
  291DMC      H 3151   0.726   0.453   2.751
  291DMC      H 3152   0.885   0.539   2.766
  292DMC      C 3153   3.465   1.332   1.031
  292DMC      O 3154   3.541   1.284   1.143
  292DMC      C 3155   3.544   1.370   1.248
  292DMC      O 3156   3.489   1.480   1.252
  292DMC      O 3157   3.618   1.315   1.347
  292DMC      C 3158   3.629   1.396   1.463
  292DMC      H 3159   3.508   1.424   0.992
  292DMC      H 3160   3.469   1.256   0.953
  292DMC      H 3161   3.361   1.347   1.059
  292DMC      H 3162   3.691   1.342   1.536
  292DMC      H 3163   3.679   1.490   1.439
  292DMC      H 3164   3.531   1.413   1.507
  293DMC      C 3165   3.095   1.273   1.301
  293DMC      O 3166   3.159   1.366   1.389
  293DMC      C 3167   3.093   1.385   1.506
  293DMC      O 3168   2.988   1.332   1.538
  293DMC      O 3169   3.163   1.475   1.580
  293DMC      C 3170   3.104   1.505   1.705
  293DMC      H 3171   2.995   1.308   1.273
  293DMC      H 3172   3.155   1.264   1.210
  293DMC      H 3173   3.088   1.174   1.348
  293DMC      H 3174   3.168   1.578   1.756
  293DMC      H 3175   3.005   1.550   1.691
  293DMC      H 3176   3.098   1.415   1.767
  294DMC      C 3177   3.075   0.380   0.870
  294DMC      O 3178   2.997   0.359   0.989
  294DMC      C 3179   3.020   0.239   1.048
  294DMC      O 3180   3.097   0.153   1.009
  294DMC      O 3181   2.941   0.231   1.159
  294DMC      C 3182   2.955   0.109   1.230
  294DMC      H 3183   3.051   0.305   0.794
  294DMC      H 3184   3.050   0.478   0.830
  294DMC      H 3185   3.181   0.378   0.893
  294DMC      H 3186   2.888   0.112   1.317
  294DMC      H 3187   2.926   0.024   1.168
  294DMC      H 3188   3.057   0.097   1.267
  295DMC      C 3189   1.093   3.799   1.861
  295DMC      O 3190   1.126   3.845   1.992
  295DMC      C 3191   1.044   3.798   2.089
  295DMC      O 3192   0.949   3.723   2.072
  295DMC      O 3193   1.085   3.848   2.208
  295DMC      C 3194   1.007   3.806   2.318
  295DMC      H 3195   0.992   3.832   1.832
  295DMC      H 3196   1.165   3.842   1.790
  295DMC      H 3197   1.101   3.690   1.855
  295DMC      H 3198   1.048   3.853   2.409
  295DMC      H 3199   0.903   3.840   2.307
  295DMC      H 3200   1.011   3.698   2.330
  296DMC      C 3201   0.284   3.085   2.995
  296DMC      O 3202   0.289   3.012   3.118
  296DMC      C 3203   0.303   3.091   3.227
  296DMC      O 3204   0.312   3.213   3.227
  296DMC      O 3205   0.306   3.012   3.337
  296DMC      C 3206   0.321   3.083   3.459
  296DMC      H 3207   0.377   3.140   2.979
  296DMC      H 3208   0.273   3.012   2.913
  296DMC      H 3209   0.198   3.152   2.993
  296DMC      H 3210   0.323   3.010   3.541
  296DMC      H 3211   0.416   3.138   3.460
  296DMC      H 3212   0.237   3.150   3.475
  297DMC      C 3213   0.921   2.219   0.678
  297DMC      O 3214   0.947   2.169   0.810
  297DMC      C 3215   0.903   2.251   0.909
  297DMC      O 3216   0.846   2.358   0.893
  297DMC      O 3217   0.932   2.192   1.028
  297DMC      C 3218   0.891   2.268   1.140
  297DMC      H 3219   0.972   2.315   0.662
  297DMC      H 3220   0.960   2.147   0.606
  297DMC      H 3221   0.814   2.230   0.661
  297DMC      H 3222   0.920   2.214   1.231
  297DMC      H 3223   0.942   2.366   1.142
  297DMC      H 3224   0.783   2.281   1.141
  298DMC      C 3225   2.912   1.795   1.510
  298DMC      O 3226   2.917   1.878   1.627
  298DMC      C 3227   2.940   1.810   1.741
  298DMC      O 3228   2.955   1.689   1.751
  298DMC      O 3229   2.942   1.899   1.844
  298DMC      C 3230   2.965   1.840   1.971
  298DMC      H 3231   2.831   1.722   1.518
  298DMC      H 3232   2.893   1.859   1.423
  298DMC      H 3233   3.008   1.744   1.495
  298DMC      H 3234   2.964   1.920   2.047
  298DMC      H 3235   2.885   1.769   1.996
  298DMC      H 3236   3.063   1.791   1.973
  299DMC      C 3237   1.057   1.851   2.269
  299DMC      O 3238   1.076   1.740   2.180
  299DMC      C 3239   1.105   1.777   2.053
  299DMC      O 3240   1.114   1.891   2.012
  299DMC      O 3241   1.121   1.664   1.980
  299DMC      C 3242   1.152   1.688   1.843
  299DMC      H 3243   0.972   1.913   2.236
  299DMC      H 3244   1.034   1.812   2.369
  299DMC      H 3245   1.147   1.912   2.276
  299DMC      H 3246   1.162   1.591   1.792
  299DMC      H 3247   1.070   1.743   1.795
  299DMC      H 3248   1.246   1.743   1.834
  300DMC      C 3249  -0.069   0.870   0.872
  300DMC      O 3250   0.059   0.859   0.807
  300DMC      C 3251   0.074   0.744   0.737
  300DMC      O 3252  -0.008   0.655   0.727
  300DMC      O 3253   0.198   0.746   0.680
  300DMC      C 3254   0.228   0.630   0.604
  300DMC      H 3255  -0.082   0.789   0.944
  300DMC      H 3256  -0.072   0.966   0.925
  300DMC      H 3257  -0.149   0.869   0.798
  300DMC      H 3258   0.329   0.640   0.564
  300DMC      H 3259   0.225   0.540   0.667
  300DMC      H 3260   0.158   0.620   0.521
  301DMC      C 3261   0.276   2.608   1.010
  301DMC      O 3262   0.371   2.574   0.908
  301DMC      C 3263   0.315   2.558   0.785
  301DMC      O 3264   0.197   2.569   0.758
  301DMC      O 3265   0.414   2.526   0.698
  301DMC      C 3266   0.369   2.505   0.565
  301DMC      H 3267   0.202   2.529   1.022
  301DMC      H 3268   0.331   2.620   1.104
  301DMC      H 3269   0.228   2.703   0.987
  301DMC      H 3270   0.456   2.480   0.503
  301DMC      H 3271   0.298   2.421   0.561
  301DMC      H 3272   0.324   2.596   0.526
  302DMC      C 3273   0.341   0.659   2.122
  302DMC      O 3274   0.312   0.607   1.992
  302DMC      C 3275   0.341   0.692   1.891
  302DMC      O 3276   0.388   0.805   1.904
  302DMC      O 3277   0.310   0.631   1.774
  302DMC      C 3278   0.336   0.711   1.659
  302DMC      H 3279   0.282   0.749   2.142
  302DMC      H 3280   0.315   0.583   2.197
  302DMC      H 3281   0.448   0.681   2.132
  302DMC      H 3282   0.306   0.654   1.571
  302DMC      H 3283   0.275   0.803   1.662
  302DMC      H 3284   0.442   0.735   1.652
  303DMC      C 3285   2.721   1.091   2.160
  303DMC      O 3286   2.678   1.185   2.259
  303DMC      C 3287   2.717   1.154   2.385
  303DMC      O 3288   2.783   1.056   2.417
  303DMC      O 3289   2.671   1.250   2.469
  303DMC      C 3290   2.705   1.229   2.605
  303DMC      H 3291   2.680   0.992   2.180
  303DMC      H 3292   2.685   1.125   2.063
  303DMC      H 3293   2.830   1.087   2.156
  303DMC      H 3294   2.662   1.310   2.664
  303DMC      H 3295   2.662   1.134   2.641
  303DMC      H 3296   2.813   1.229   2.618
  304DMC      C 3297  -0.006   0.111   1.099
  304DMC      O 3298   0.051   0.239   1.130
  304DMC      C 3299   0.037   0.330   1.031
  304DMC      O 3300  -0.017   0.311   0.923
  304DMC      O 3301   0.094   0.446   1.073
  304DMC      C 3302   0.087   0.551   0.977
  304DMC      H 3303   0.043   0.067   1.011
  304DMC      H 3304   0.009   0.044   1.184
  304DMC      H 3305  -0.114   0.120   1.081
  304DMC      H 3306   0.136   0.640   1.020
  304DMC      H 3307   0.141   0.523   0.886
  304DMC      H 3308  -0.017   0.576   0.955
  305DMC      C 3309  -0.007   2.299   2.930
  305DMC      O 3310  -0.006   2.279   3.072
  305DMC      C 3311   0.118   2.269   3.125
  305DMC      O 3312   0.223   2.275   3.063
  305DMC      O 3313   0.106   2.251   3.259
  305DMC      C 3314   0.230   2.239   3.327
  305DMC      H 3315   0.040   2.214   2.879
  305DMC      H 3316  -0.111   2.306   2.897
  305DMC      H 3317   0.044   2.392   2.903
  305DMC      H 3318   0.209   2.224   3.434
  305DMC      H 3319   0.285   2.151   3.291
  305DMC      H 3320   0.289   2.330   3.315
  306DMC      C 3321   0.803   3.308   0.220
  306DMC      O 3322   0.683   3.260   0.280
  306DMC      C 3323   0.668   3.297   0.410
  306DMC      O 3324   0.746   3.364   0.475
  306DMC      O 3325   0.550   3.245   0.455
  306DMC      C 3326   0.522   3.277   0.590
  306DMC      H 3327   0.891   3.268   0.272
  306DMC      H 3328   0.806   3.274   0.116
  306DMC      H 3329   0.806   3.417   0.220
  306DMC      H 3330   0.426   3.230   0.617
  306DMC      H 3331   0.600   3.234   0.656
  306DMC      H 3332   0.514   3.384   0.604
  307DMC      C 3333   2.583   1.813   1.536
  307DMC      O 3334   2.550   1.772   1.403
  307DMC      C 3335   2.416   1.762   1.380
  307DMC      O 3336   2.328   1.782   1.463
  307DMC      O 3337   2.398   1.724   1.251
  307DMC      C 3338   2.262   1.708   1.215
  307DMC      H 3339   2.547   1.739   1.609
  307DMC      H 3340   2.692   1.819   1.544
  307DMC      H 3341   2.541   1.911   1.558
  307DMC      H 3342   2.257   1.677   1.110
  307DMC      H 3343   2.214   1.630   1.276
  307DMC      H 3344   2.208   1.803   1.225
  308DMC      C 3345   3.591   0.608   0.024
  308DMC      O 3346   3.571   0.659   0.156
  308DMC      C 3347   3.605   0.571   0.254
  308DMC      O 3348   3.647   0.458   0.237
  308DMC      O 3349   3.582   0.631   0.374
  308DMC      C 3350   3.613   0.549   0.485
  308DMC      H 3351   3.529   0.520   0.006
  308DMC      H 3352   3.561   0.686  -0.047
  308DMC      H 3353   3.696   0.585   0.007
  308DMC      H 3354   3.591   0.605   0.577
  308DMC      H 3355   3.550   0.458   0.485
  308DMC      H 3356   3.719   0.523   0.486
  309DMC      C 3357   0.969   1.713   2.706
  309DMC      O 3358   0.944   1.792   2.589
  309DMC      C 3359   1.015   1.908   2.585
  309DMC      O 3360   1.094   1.946   2.671
  309DMC      O 3361   0.983   1.973   2.471
  309DMC      C 3362   1.051   2.097   2.455
  309DMC      H 3363   0.941   1.768   2.797
  309DMC      H 3364   0.908   1.623   2.700
  309DMC      H 3365   1.074   1.683   2.711
  309DMC      H 3366   1.018   2.142   2.360
  309DMC      H 3367   1.025   2.166   2.536
  309DMC      H 3368   1.159   2.081   2.450
  310DMC      C 3369   2.814   1.293  -0.160
  310DMC      O 3370   2.694   1.253  -0.093
  310DMC      C 3371   2.716   1.177   0.017
  310DMC      O 3372   2.826   1.141   0.059
  310DMC      O 3373   2.596   1.147   0.072
  310DMC      C 3374   2.605   1.066   0.189
  310DMC      H 3375   2.869   1.205  -0.196
  310DMC      H 3376   2.786   1.354  -0.247
  310DMC      H 3377   2.877   1.353  -0.095
  310DMC      H 3378   2.503   1.046   0.225
  310DMC      H 3379   2.652   0.969   0.165
  310DMC      H 3380   2.661   1.118   0.267
  311DMC      C 3381   2.323   2.037   0.292
  311DMC      O 3382   2.398   2.089   0.181
  311DMC      C 3383   2.531   2.093   0.201
  311DMC      O 3384   2.589   2.058   0.303
  311DMC      O 3385   2.590   2.142   0.090
  311DMC      C 3386   2.731   2.152   0.099
  311DMC      H 3387   2.337   2.100   0.380
  311DMC      H 3388   2.217   2.038   0.265
  311DMC      H 3389   2.353   1.934   0.313
  311DMC      H 3390   2.769   2.194   0.004
  311DMC      H 3391   2.760   2.220   0.180
  311DMC      H 3392   2.776   2.053   0.113
  312DMC      C 3393   2.103   2.893   2.159
  312DMC      O 3394   2.096   2.854   2.296
  312DMC      C 3395   2.138   2.949   2.383
  312DMC      O 3396   2.179   3.060   2.352
  312DMC      O 3397   2.126   2.900   2.509
  312DMC      C 3398   2.168   2.990   2.610
  312DMC      H 3399   2.206   2.915   2.130
  312DMC      H 3400   2.067   2.810   2.097
  312DMC      H 3401   2.039   2.980   2.140
  312DMC      H 3402   2.155   2.941   2.707
  312DMC      H 3403   2.274   3.015   2.598
  312DMC      H 3404   2.106   3.081   2.608
  313DMC      C 3405   0.664   2.400   0.450
  313DMC      O 3406   0.763   2.455   0.362
  313DMC      C 3407   0.760   2.403   0.237
  313DMC      O 3408   0.682   2.317   0.197
  313DMC      O 3409   0.857   2.463   0.164
  313DMC      C 3410   0.865   2.418   0.030
  313DMC      H 3411   0.679   2.292   0.462
  313DMC      H 3412   0.675   2.447   0.548
  313DMC      H 3413   0.564   2.420   0.413
  313DMC      H 3414   0.946   2.471  -0.020
  313DMC      H 3415   0.888   2.310   0.027
  313DMC      H 3416   0.772   2.439  -0.023
  314DMC      C 3417   1.681   2.157   3.267
  314DMC      O 3418   1.675   2.014   3.266
  314DMC      C 3419   1.551   1.965   3.244
  314DMC      O 3420   1.450   2.032   3.227
  314DMC      O 3421   1.558   1.830   3.244
  314DMC      C 3422   1.433   1.766   3.222
  314DMC      H 3423   1.619   2.198   3.348
  314DMC      H 3424   1.785   2.187   3.285
  314DMC      H 3425   1.650   2.198   3.171
  314DMC      H 3426   1.449   1.657   3.225
  314DMC      H 3427   1.362   1.791   3.302
  314DMC      H 3428   1.393   1.792   3.124
  315DMC      C 3429   0.946   0.994   0.899
  315DMC      O 3430   0.826   1.072   0.883
  315DMC      C 3431   0.802   1.109   0.756
  315DMC      O 3432   0.871   1.082   0.658
  315DMC      O 3433   0.687   1.182   0.754
  315DMC      C 3434   0.650   1.227   0.625
  315DMC      H 3435   1.034   1.051   0.867
  315DMC      H 3436   0.956   0.968   1.005
  315DMC      H 3437   0.938   0.901   0.842
  315DMC      H 3438   0.557   1.285   0.634
  315DMC      H 3439   0.727   1.294   0.584
  315DMC      H 3440   0.632   1.143   0.558
  316DMC      C 3441   2.096   0.167   3.416
  316DMC      O 3442   2.108   0.097   3.292
  316DMC      C 3443   2.041   0.155   3.190
  316DMC      O 3444   1.975   0.257   3.197
  316DMC      O 3445   2.060   0.080   3.078
  316DMC      C 3446   1.994   0.130   2.963
  316DMC      H 3447   1.992   0.171   3.449
  316DMC      H 3448   2.154   0.112   3.492
  316DMC      H 3449   2.138   0.268   3.408
  316DMC      H 3450   2.014   0.063   2.879
  316DMC      H 3451   1.885   0.133   2.979
  316DMC      H 3452   2.031   0.230   2.938
  317DMC      C 3453   3.215   1.488   0.992
  317DMC      O 3454   3.194   1.578   0.882
  317DMC      C 3455   3.245   1.533   0.765
  317DMC      O 3456   3.305   1.428   0.748
  317DMC      O 3457   3.219   1.626   0.669
  317DMC      C 3458   3.268   1.592   0.541
  317DMC      H 3459   3.322   1.473   1.010
  317DMC      H 3460   3.170   1.532   1.081
  317DMC      H 3461   3.166   1.392   0.973
  317DMC      H 3462   3.243   1.673   0.471
  317DMC      H 3463   3.378   1.582   0.543
  317DMC      H 3464   3.221   1.500   0.505
  318DMC      C 3465   3.068   0.941   1.074
  318DMC      O 3466   2.954   1.025   1.055
  318DMC      C 3467   2.869   1.026   1.161
  318DMC      O 3468   2.883   0.962   1.264
  318DMC      O 3469   2.765   1.109   1.132
  318DMC      C 3470   2.669   1.118   1.236
  318DMC      H 3471   3.038   0.837   1.087
  318DMC      H 3472   3.130   0.948   0.984
  318DMC      H 3473   3.128   0.975   1.159
  318DMC      H 3474   2.589   1.186   1.202
  318DMC      H 3475   2.623   1.019   1.254
  318DMC      H 3476   2.713   1.158   1.327
  319DMC      C 3477   2.561   3.661   2.094
  319DMC      O 3478   2.625   3.729   2.202
  319DMC      C 3479   2.740   3.791   2.167
  319DMC      O 3480   2.789   3.792   2.055
  319DMC      O 3481   2.791   3.852   2.277
  319DMC      C 3482   2.913   3.921   2.253
  319DMC      H 3483   2.625   3.582   2.053
  319DMC      H 3484   2.469   3.614   2.132
  319DMC      H 3485   2.533   3.731   2.015
  319DMC      H 3486   2.946   3.965   2.348
  319DMC      H 3487   2.991   3.851   2.220
  319DMC      H 3488   2.898   4.001   2.181
  320DMC      C 3489   2.185   2.098  -0.034
  320DMC      O 3490   2.079   2.192  -0.058
  320DMC      C 3491   2.056   2.275   0.045
  320DMC      O 3492   2.115   2.276   0.152
  320DMC      O 3493   1.954   2.359   0.010
  320DMC      C 3494   1.919   2.452   0.111
  320DMC      H 3495   2.161   2.034   0.051
  320DMC      H 3496   2.196   2.036  -0.123
  320DMC      H 3497   2.279   2.151  -0.017
  320DMC      H 3498   1.836   2.514   0.074
  320DMC      H 3499   1.884   2.400   0.202
  320DMC      H 3500   2.003   2.517   0.134
  321DMC      C 3501   0.097   3.651   2.510
  321DMC      O 3502   0.170   3.595   2.620
  321DMC      C 3503   0.101   3.504   2.691
  321DMC      O 3504  -0.014   3.468   2.669
  321DMC      O 3505   0.180   3.458   2.791
  321DMC      C 3506   0.118   3.361   2.874
  321DMC      H 3507   0.008   3.703   2.545
  321DMC      H 3508   0.162   3.723   2.459
  321DMC      H 3509   0.070   3.573   2.438
  321DMC      H 3510   0.190   3.332   2.952
  321DMC      H 3511   0.030   3.404   2.924
  321DMC      H 3512   0.092   3.273   2.817
  322DMC      C 3513   0.564   1.270   1.006
  322DMC      O 3514   0.514   1.404   0.999
  322DMC      C 3515   0.566   1.488   1.092
  322DMC      O 3516   0.649   1.457   1.177
  322DMC      O 3517   0.511   1.611   1.075
  322DMC      C 3518   0.558   1.708   1.167
  322DMC      H 3519   0.541   1.225   1.103
  322DMC      H 3520   0.516   1.211   0.928
  322DMC      H 3521   0.672   1.269   0.989
  322DMC      H 3522   0.507   1.803   1.145
  322DMC      H 3523   0.533   1.679   1.270
  322DMC      H 3524   0.665   1.723   1.156
  323DMC      C 3525   1.297   0.616   0.284
  323DMC      O 3526   1.358   0.685   0.175
  323DMC      C 3527   1.480   0.735   0.204
  323DMC      O 3528   1.538   0.726   0.312
  323DMC      O 3529   1.528   0.798   0.094
  323DMC      C 3530   1.657   0.856   0.112
  323DMC      H 3531   1.281   0.683   0.369
  323DMC      H 3532   1.199   0.579   0.251
  323DMC      H 3533   1.357   0.530   0.314
  323DMC      H 3534   1.686   0.905   0.018
  323DMC      H 3535   1.654   0.933   0.190
  323DMC      H 3536   1.730   0.779   0.135
  324DMC      C 3537   0.258   1.768   0.431
  324DMC      O 3538   0.392   1.791   0.385
  324DMC      C 3539   0.486   1.778   0.482
  324DMC      O 3540   0.464   1.749   0.599
  324DMC      O 3541   0.607   1.802   0.427
  324DMC      C 3542   0.715   1.791   0.519
  324DMC      H 3543   0.230   1.840   0.508
  324DMC      H 3544   0.190   1.781   0.346
  324DMC      H 3545   0.247   1.666   0.468
  324DMC      H 3546   0.808   1.813   0.465
  324DMC      H 3547   0.704   1.865   0.599
  324DMC      H 3548   0.721   1.690   0.559
  325DMC      C 3549  -0.014   0.767   3.422
  325DMC      O 3550   0.098   0.722   3.345
  325DMC      C 3551   0.212   0.792   3.369
  325DMC      O 3552   0.224   0.885   3.448
  325DMC      O 3553   0.311   0.740   3.291
  325DMC      C 3554   0.436   0.805   3.307
  325DMC      H 3555  -0.038   0.871   3.399
  325DMC      H 3556  -0.100   0.705   3.396
  325DMC      H 3557   0.005   0.755   3.529
  325DMC      H 3558   0.508   0.757   3.240
  325DMC      H 3559   0.429   0.911   3.279
  325DMC      H 3560   0.472   0.794   3.410
  326DMC      C 3561   2.157   2.269   2.011
  326DMC      O 3562   2.074   2.192   1.924
  326DMC      C 3563   2.053   2.248   1.803
  326DMC      O 3564   2.098   2.356   1.766
  326DMC      O 3565   1.973   2.166   1.731
  326DMC      C 3566   1.943   2.214   1.601
  326DMC      H 3567   2.112   2.367   2.032
  326DMC      H 3568   2.168   2.215   2.106
  326DMC      H 3569   2.257   2.282   1.967
  326DMC      H 3570   1.878   2.141   1.551
  326DMC      H 3571   1.889   2.310   1.607
  326DMC      H 3572   2.034   2.225   1.542
  327DMC      C 3573   1.931   1.659   0.469
  327DMC      O 3574   1.999   1.666   0.343
  327DMC      C 3575   1.920   1.705   0.240
  327DMC      O 3576   1.801   1.732   0.248
  327DMC      O 3577   1.996   1.708   0.127
  327DMC      C 3578   1.924   1.746   0.011
  327DMC      H 3579   1.850   1.586   0.465
  327DMC      H 3580   2.003   1.628   0.545
  327DMC      H 3581   1.893   1.758   0.497
  327DMC      H 3582   1.993   1.745  -0.074
  327DMC      H 3583   1.843   1.675  -0.010
  327DMC      H 3584   1.885   1.848   0.022
  328DMC      C 3585   0.812   1.437   2.497
  328DMC      O 3586   0.770   1.424   2.361
  328DMC      C 3587   0.813   1.524   2.281
  328DMC      O 3588   0.881   1.620   2.315
  328DMC      O 3589   0.767   1.500   2.155
  328DMC      C 3590   0.805   1.599   2.060
  328DMC      H 3591   0.772   1.529   2.541
  328DMC      H 3592   0.773   1.352   2.553
  328DMC      H 3593   0.921   1.435   2.504
  328DMC      H 3594   0.763   1.572   1.963
  328DMC      H 3595   0.764   1.697   2.088
  328DMC      H 3596   0.914   1.604   2.051
  329DMC      C 3597   0.794   2.210   1.437
  329DMC      O 3598   0.722   2.290   1.531
  329DMC      C 3599   0.707   2.232   1.652
  329DMC      O 3600   0.748   2.121   1.683
  329DMC      O 3601   0.638   2.317   1.733
  329DMC      C 3602   0.615   2.266   1.863
  329DMC      H 3603   0.741   2.117   1.417
  329DMC      H 3604   0.801   2.266   1.343
  329DMC      H 3605   0.895   2.190   1.472
  329DMC      H 3606   0.558   2.342   1.919
  329DMC      H 3607   0.554   2.175   1.859
  329DMC      H 3608   0.709   2.248   1.915
  330DMC      C 3609   2.780   3.241   0.667
  330DMC      O 3610   2.656   3.199   0.724
  330DMC      C 3611   2.660   3.075   0.779
  330DMC      O 3612   2.758   3.001   0.782
  330DMC      O 3613   2.538   3.046   0.829
  330DMC      C 3614   2.529   2.918   0.889
  330DMC      H 3615   2.811   3.175   0.586
  330DMC      H 3616   2.767   3.342   0.626
  330DMC      H 3617   2.858   3.246   0.744
  330DMC      H 3618   2.426   2.904   0.926
  330DMC      H 3619   2.549   2.839   0.815
  330DMC      H 3620   2.597   2.911   0.974
  331DMC      C 3621   1.059   0.802   1.599
  331DMC      O 3622   0.979   0.818   1.717
  331DMC      C 3623   1.049   0.864   1.823
  331DMC      O 3624   1.169   0.890   1.825
  331DMC      O 3625   0.963   0.876   1.928
  331DMC      C 3626   1.025   0.923   2.047
  331DMC      H 3627   1.138   0.728   1.616
  331DMC      H 3628   0.994   0.765   1.519
  331DMC      H 3629   1.101   0.897   1.567
  331DMC      H 3630   0.948   0.929   2.126
  331DMC      H 3631   1.102   0.853   2.081
  331DMC      H 3632   1.066   1.023   2.032
  332DMC      C 3633   3.088   2.240   3.323
  332DMC      O 3634   3.196   2.186   3.400
  332DMC      C 3635   3.162   2.153   3.527
  332DMC      O 3636   3.051   2.166   3.577
  332DMC      O 3637   3.272   2.103   3.589
  332DMC      C 3638   3.250   2.064   3.724
  332DMC      H 3639   3.051   2.332   3.369
  332DMC      H 3640   3.125   2.263   3.223
  332DMC      H 3641   3.007   2.167   3.314
  332DMC      H 3642   3.344   2.026   3.765
  332DMC      H 3643   3.219   2.151   3.784
  332DMC      H 3644   3.175   1.985   3.729
  333DMC      C 3645   1.058   3.326   2.809
  333DMC      O 3646   0.961   3.261   2.727
  333DMC      C 3647   0.837   3.256   2.782
  333DMC      O 3648   0.806   3.299   2.892
  333DMC      O 3649   0.754   3.193   2.694
  333DMC      C 3650   0.621   3.180   2.741
  333DMC      H 3651   1.071   3.272   2.904
  333DMC      H 3652   1.154   3.325   2.756
  333DMC      H 3653   1.030   3.429   2.828
  333DMC      H 3654   0.563   3.128   2.664
  333DMC      H 3655   0.618   3.120   2.832
  333DMC      H 3656   0.577   3.279   2.757
  334DMC      C 3657   1.272   2.750   0.751
  334DMC      O 3658   1.156   2.674   0.716
  334DMC      C 3659   1.040   2.743   0.727
  334DMC      O 3660   1.029   2.859   0.764
  334DMC      O 3661   0.938   2.661   0.691
  334DMC      C 3662   0.810   2.721   0.698
  334DMC      H 3663   1.267   2.782   0.856
  334DMC      H 3664   1.360   2.686   0.739
  334DMC      H 3665   1.283   2.837   0.686
  334DMC      H 3666   0.735   2.647   0.668
  334DMC      H 3667   0.788   2.751   0.802
  334DMC      H 3668   0.804   2.807   0.631
  335DMC      C 3669   2.082   0.720   2.945
  335DMC      O 3670   2.122   0.590   2.898
  335DMC      C 3671   2.205   0.525   2.982
  335DMC      O 3672   2.247   0.567   3.089
  335DMC      O 3673   2.235   0.404   2.927
  335DMC      C 3674   2.323   0.325   3.006
  335DMC      H 3675   2.169   0.785   2.956
  335DMC      H 3676   2.015   0.764   2.871
  335DMC      H 3677   2.028   0.711   3.039
  335DMC      H 3678   2.341   0.231   2.953
  335DMC      H 3679   2.419   0.376   3.019
  335DMC      H 3680   2.278   0.303   3.103
  336DMC      C 3681   2.028   0.688   1.886
  336DMC      O 3682   2.089   0.726   1.762
  336DMC      C 3683   2.041   0.659   1.654
  336DMC      O 3684   1.954   0.572   1.657
  336DMC      O 3685   2.106   0.703   1.544
  336DMC      C 3686   2.064   0.640   1.424
  336DMC      H 3687   2.046   0.582   1.907
  336DMC      H 3688   2.074   0.747   1.965
  336DMC      H 3689   1.921   0.709   1.884
  336DMC      H 3690   2.122   0.682   1.341
  336DMC      H 3691   2.084   0.532   1.428
  336DMC      H 3692   1.958   0.659   1.405
  337DMC      C 3693   3.546   1.136   3.148
  337DMC      O 3694   3.524   1.126   3.290
  337DMC      C 3695   3.622   1.061   3.356
  337DMC      O 3696   3.723   1.013   3.306
  337DMC      O 3697   3.590   1.059   3.488
  337DMC      C 3698   3.686   0.993   3.570
  337DMC      H 3699   3.551   1.036   3.103
  337DMC      H 3700   3.462   1.189   3.104
  337DMC      H 3701   3.638   1.192   3.127
  337DMC      H 3702   3.651   0.996   3.674
  337DMC      H 3703   3.695   0.888   3.540
  337DMC      H 3704   3.782   1.044   3.564
  338DMC      C 3705   3.702   0.293   3.562
  338DMC      O 3706   3.821   0.348   3.619
  338DMC      C 3707   3.806   0.391   3.746
  338DMC      O 3708   3.702   0.388   3.811
  338DMC      O 3709   3.925   0.440   3.789
  338DMC      C 3710   3.923   0.490   3.921
  338DMC      H 3711   3.623   0.369   3.557
  338DMC      H 3712   3.724   0.260   3.460
  338DMC      H 3713   3.668   0.206   3.619
  338DMC      H 3714   4.023   0.527   3.946
  338DMC      H 3715   3.852   0.574   3.930
  338DMC      H 3716   3.897   0.411   3.992
  339DMC      C 3717   1.369   2.441   2.724
  339DMC      O 3718   1.325   2.403   2.593
  339DMC      C 3719   1.339   2.501   2.501
  339DMC      O 3720   1.383   2.613   2.521
  339DMC      O 3721   1.294   2.453   2.382
  339DMC      C 3722   1.302   2.547   2.276
  339DMC      H 3723   1.311   2.525   2.762
  339DMC      H 3724   1.355   2.355   2.791
  339DMC      H 3725   1.475   2.466   2.723
  339DMC      H 3726   1.263   2.499   2.185
  339DMC      H 3727   1.240   2.635   2.297
  339DMC      H 3728   1.406   2.576   2.258
  340DMC      C 3729   2.653   0.729   1.320
  340DMC      O 3730   2.778   0.676   1.367
  340DMC      C 3731   2.842   0.757   1.454
  340DMC      O 3732   2.804   0.867   1.492
  340DMC      O 3733   2.958   0.696   1.491
  340DMC      C 3734   3.036   0.771   1.582
  340DMC      H 3735   2.669   0.823   1.266
  340DMC      H 3736   2.609   0.657   1.251
  340DMC      H 3737   2.584   0.744   1.403
  340DMC      H 3738   3.127   0.714   1.605
  340DMC      H 3739   3.067   0.867   1.537
  340DMC      H 3740   2.981   0.788   1.675
   3.82000   3.82000   3.82000
